[Molden Format]
made by pyscf v[2.0.1]
[Atoms] (AU)
C   1   6    -2.73653129824391    10.86023714061417     0.00000000000000
C   2   6    -1.31205574554677    13.15092535428944     0.00000000000000
C   3   6     1.31205574554677    13.15092535428944     0.00000000000000
C   4   6     2.73653129824391    10.86023714061417     0.00000000000000
C   5   6     1.34896209675952     8.66726666484015     0.00000000000000
C   6   6    -1.34896209675952     8.66726666484015     0.00000000000000
C   7   6    -2.81790290516768     3.61294848029470     0.00000000000000
C   8   6    -1.34119532238756     5.80962281927286     0.00000000000000
C   9   6     1.34119532238756     5.80962281927286     0.00000000000000
C   10   6     2.81790290516768     3.61294848029470     0.00000000000000
C   11   6     1.34542830890659     1.42912427896357     0.00000000000000
C   12   6    -1.34542830890659     1.42912427896357     0.00000000000000
H   13   1    -2.31856167401261    14.95336502916084     0.00000000000000
H   14   1     2.31856167401261    14.95336502916084     0.00000000000000
H   15   1     4.79939413034162    10.89946785496014     0.00000000000000
H   16   1     4.87974528515813     3.61326973373587     0.00000000000000
H   17   1    -4.79939413034162    10.89946785496014     0.00000000000000
H   18   1    -4.87974528515813     3.61326973373587     0.00000000000000
H   19   1     2.26113289708708    -0.29271857669513     0.00000000000000
H   20   1    -2.26113289708708    -0.29271857669513     0.00000000000000
[GTO]
1 0
 s    8 1.00
                  6665  0.00069158396281299
                  1000  0.0053257961529341
                   228   0.027060721042034
                 64.71    0.10165684614077
                 21.06     0.2745748236174
                 7.495    0.44829431892377
                 2.797    0.28490261071525
                0.5215   0.015194859206082
 s    8 1.00
                  6665  -0.00029326965268655
                  1000  -0.0023180354739745
                   228  -0.011499786038565
                 64.71  -0.046826727009787
                 21.06   -0.12846616875047
                 7.495   -0.30126627246289
                 2.797   -0.25563070233011
                0.5215      1.093793361012
 s    1 1.00
                0.1596                   1
 p    3 1.00
                 9.439   0.056979251590039
                 2.002    0.31320721150073
                0.5456    0.76037674173753
 p    1 1.00
                0.1517                   1
 d    1 1.00
                  0.55                   1

2 0
 s    8 1.00
                  6665  0.00069158396281299
                  1000  0.0053257961529341
                   228   0.027060721042034
                 64.71    0.10165684614077
                 21.06     0.2745748236174
                 7.495    0.44829431892377
                 2.797    0.28490261071525
                0.5215   0.015194859206082
 s    8 1.00
                  6665  -0.00029326965268655
                  1000  -0.0023180354739745
                   228  -0.011499786038565
                 64.71  -0.046826727009787
                 21.06   -0.12846616875047
                 7.495   -0.30126627246289
                 2.797   -0.25563070233011
                0.5215      1.093793361012
 s    1 1.00
                0.1596                   1
 p    3 1.00
                 9.439   0.056979251590039
                 2.002    0.31320721150073
                0.5456    0.76037674173753
 p    1 1.00
                0.1517                   1
 d    1 1.00
                  0.55                   1

3 0
 s    8 1.00
                  6665  0.00069158396281299
                  1000  0.0053257961529341
                   228   0.027060721042034
                 64.71    0.10165684614077
                 21.06     0.2745748236174
                 7.495    0.44829431892377
                 2.797    0.28490261071525
                0.5215   0.015194859206082
 s    8 1.00
                  6665  -0.00029326965268655
                  1000  -0.0023180354739745
                   228  -0.011499786038565
                 64.71  -0.046826727009787
                 21.06   -0.12846616875047
                 7.495   -0.30126627246289
                 2.797   -0.25563070233011
                0.5215      1.093793361012
 s    1 1.00
                0.1596                   1
 p    3 1.00
                 9.439   0.056979251590039
                 2.002    0.31320721150073
                0.5456    0.76037674173753
 p    1 1.00
                0.1517                   1
 d    1 1.00
                  0.55                   1

4 0
 s    8 1.00
                  6665  0.00069158396281299
                  1000  0.0053257961529341
                   228   0.027060721042034
                 64.71    0.10165684614077
                 21.06     0.2745748236174
                 7.495    0.44829431892377
                 2.797    0.28490261071525
                0.5215   0.015194859206082
 s    8 1.00
                  6665  -0.00029326965268655
                  1000  -0.0023180354739745
                   228  -0.011499786038565
                 64.71  -0.046826727009787
                 21.06   -0.12846616875047
                 7.495   -0.30126627246289
                 2.797   -0.25563070233011
                0.5215      1.093793361012
 s    1 1.00
                0.1596                   1
 p    3 1.00
                 9.439   0.056979251590039
                 2.002    0.31320721150073
                0.5456    0.76037674173753
 p    1 1.00
                0.1517                   1
 d    1 1.00
                  0.55                   1

5 0
 s    8 1.00
                  6665  0.00069158396281299
                  1000  0.0053257961529341
                   228   0.027060721042034
                 64.71    0.10165684614077
                 21.06     0.2745748236174
                 7.495    0.44829431892377
                 2.797    0.28490261071525
                0.5215   0.015194859206082
 s    8 1.00
                  6665  -0.00029326965268655
                  1000  -0.0023180354739745
                   228  -0.011499786038565
                 64.71  -0.046826727009787
                 21.06   -0.12846616875047
                 7.495   -0.30126627246289
                 2.797   -0.25563070233011
                0.5215      1.093793361012
 s    1 1.00
                0.1596                   1
 p    3 1.00
                 9.439   0.056979251590039
                 2.002    0.31320721150073
                0.5456    0.76037674173753
 p    1 1.00
                0.1517                   1
 d    1 1.00
                  0.55                   1

6 0
 s    8 1.00
                  6665  0.00069158396281299
                  1000  0.0053257961529341
                   228   0.027060721042034
                 64.71    0.10165684614077
                 21.06     0.2745748236174
                 7.495    0.44829431892377
                 2.797    0.28490261071525
                0.5215   0.015194859206082
 s    8 1.00
                  6665  -0.00029326965268655
                  1000  -0.0023180354739745
                   228  -0.011499786038565
                 64.71  -0.046826727009787
                 21.06   -0.12846616875047
                 7.495   -0.30126627246289
                 2.797   -0.25563070233011
                0.5215      1.093793361012
 s    1 1.00
                0.1596                   1
 p    3 1.00
                 9.439   0.056979251590039
                 2.002    0.31320721150073
                0.5456    0.76037674173753
 p    1 1.00
                0.1517                   1
 d    1 1.00
                  0.55                   1

7 0
 s    8 1.00
                  6665  0.00069158396281299
                  1000  0.0053257961529341
                   228   0.027060721042034
                 64.71    0.10165684614077
                 21.06     0.2745748236174
                 7.495    0.44829431892377
                 2.797    0.28490261071525
                0.5215   0.015194859206082
 s    8 1.00
                  6665  -0.00029326965268655
                  1000  -0.0023180354739745
                   228  -0.011499786038565
                 64.71  -0.046826727009787
                 21.06   -0.12846616875047
                 7.495   -0.30126627246289
                 2.797   -0.25563070233011
                0.5215      1.093793361012
 s    1 1.00
                0.1596                   1
 p    3 1.00
                 9.439   0.056979251590039
                 2.002    0.31320721150073
                0.5456    0.76037674173753
 p    1 1.00
                0.1517                   1
 d    1 1.00
                  0.55                   1

8 0
 s    8 1.00
                  6665  0.00069158396281299
                  1000  0.0053257961529341
                   228   0.027060721042034
                 64.71    0.10165684614077
                 21.06     0.2745748236174
                 7.495    0.44829431892377
                 2.797    0.28490261071525
                0.5215   0.015194859206082
 s    8 1.00
                  6665  -0.00029326965268655
                  1000  -0.0023180354739745
                   228  -0.011499786038565
                 64.71  -0.046826727009787
                 21.06   -0.12846616875047
                 7.495   -0.30126627246289
                 2.797   -0.25563070233011
                0.5215      1.093793361012
 s    1 1.00
                0.1596                   1
 p    3 1.00
                 9.439   0.056979251590039
                 2.002    0.31320721150073
                0.5456    0.76037674173753
 p    1 1.00
                0.1517                   1
 d    1 1.00
                  0.55                   1

9 0
 s    8 1.00
                  6665  0.00069158396281299
                  1000  0.0053257961529341
                   228   0.027060721042034
                 64.71    0.10165684614077
                 21.06     0.2745748236174
                 7.495    0.44829431892377
                 2.797    0.28490261071525
                0.5215   0.015194859206082
 s    8 1.00
                  6665  -0.00029326965268655
                  1000  -0.0023180354739745
                   228  -0.011499786038565
                 64.71  -0.046826727009787
                 21.06   -0.12846616875047
                 7.495   -0.30126627246289
                 2.797   -0.25563070233011
                0.5215      1.093793361012
 s    1 1.00
                0.1596                   1
 p    3 1.00
                 9.439   0.056979251590039
                 2.002    0.31320721150073
                0.5456    0.76037674173753
 p    1 1.00
                0.1517                   1
 d    1 1.00
                  0.55                   1

10 0
 s    8 1.00
                  6665  0.00069158396281299
                  1000  0.0053257961529341
                   228   0.027060721042034
                 64.71    0.10165684614077
                 21.06     0.2745748236174
                 7.495    0.44829431892377
                 2.797    0.28490261071525
                0.5215   0.015194859206082
 s    8 1.00
                  6665  -0.00029326965268655
                  1000  -0.0023180354739745
                   228  -0.011499786038565
                 64.71  -0.046826727009787
                 21.06   -0.12846616875047
                 7.495   -0.30126627246289
                 2.797   -0.25563070233011
                0.5215      1.093793361012
 s    1 1.00
                0.1596                   1
 p    3 1.00
                 9.439   0.056979251590039
                 2.002    0.31320721150073
                0.5456    0.76037674173753
 p    1 1.00
                0.1517                   1
 d    1 1.00
                  0.55                   1

11 0
 s    8 1.00
                  6665  0.00069158396281299
                  1000  0.0053257961529341
                   228   0.027060721042034
                 64.71    0.10165684614077
                 21.06     0.2745748236174
                 7.495    0.44829431892377
                 2.797    0.28490261071525
                0.5215   0.015194859206082
 s    8 1.00
                  6665  -0.00029326965268655
                  1000  -0.0023180354739745
                   228  -0.011499786038565
                 64.71  -0.046826727009787
                 21.06   -0.12846616875047
                 7.495   -0.30126627246289
                 2.797   -0.25563070233011
                0.5215      1.093793361012
 s    1 1.00
                0.1596                   1
 p    3 1.00
                 9.439   0.056979251590039
                 2.002    0.31320721150073
                0.5456    0.76037674173753
 p    1 1.00
                0.1517                   1
 d    1 1.00
                  0.55                   1

12 0
 s    8 1.00
                  6665  0.00069158396281299
                  1000  0.0053257961529341
                   228   0.027060721042034
                 64.71    0.10165684614077
                 21.06     0.2745748236174
                 7.495    0.44829431892377
                 2.797    0.28490261071525
                0.5215   0.015194859206082
 s    8 1.00
                  6665  -0.00029326965268655
                  1000  -0.0023180354739745
                   228  -0.011499786038565
                 64.71  -0.046826727009787
                 21.06   -0.12846616875047
                 7.495   -0.30126627246289
                 2.797   -0.25563070233011
                0.5215      1.093793361012
 s    1 1.00
                0.1596                   1
 p    3 1.00
                 9.439   0.056979251590039
                 2.002    0.31320721150073
                0.5456    0.76037674173753
 p    1 1.00
                0.1517                   1
 d    1 1.00
                  0.55                   1

13 0
 s    3 1.00
                 13.01   0.033498726389998
                 1.962    0.23480080117413
                0.4446     0.8136829578829
 s    1 1.00
                 0.122                   1
 p    1 1.00
                 0.727                   1

14 0
 s    3 1.00
                 13.01   0.033498726389998
                 1.962    0.23480080117413
                0.4446     0.8136829578829
 s    1 1.00
                 0.122                   1
 p    1 1.00
                 0.727                   1

15 0
 s    3 1.00
                 13.01   0.033498726389998
                 1.962    0.23480080117413
                0.4446     0.8136829578829
 s    1 1.00
                 0.122                   1
 p    1 1.00
                 0.727                   1

16 0
 s    3 1.00
                 13.01   0.033498726389998
                 1.962    0.23480080117413
                0.4446     0.8136829578829
 s    1 1.00
                 0.122                   1
 p    1 1.00
                 0.727                   1

17 0
 s    3 1.00
                 13.01   0.033498726389998
                 1.962    0.23480080117413
                0.4446     0.8136829578829
 s    1 1.00
                 0.122                   1
 p    1 1.00
                 0.727                   1

18 0
 s    3 1.00
                 13.01   0.033498726389998
                 1.962    0.23480080117413
                0.4446     0.8136829578829
 s    1 1.00
                 0.122                   1
 p    1 1.00
                 0.727                   1

19 0
 s    3 1.00
                 13.01   0.033498726389998
                 1.962    0.23480080117413
                0.4446     0.8136829578829
 s    1 1.00
                 0.122                   1
 p    1 1.00
                 0.727                   1

20 0
 s    3 1.00
                 13.01   0.033498726389998
                 1.962    0.23480080117413
                0.4446     0.8136829578829
 s    1 1.00
                 0.122                   1
 p    1 1.00
                 0.727                   1

[5d]
[7f]
[9g]

[MO]
 Sym= A
 Ene=               0
 Spin= Alpha
 Occup=    1.00000
   1    3.3987505398174e-16
   2    -7.2362048523591e-16
   3    -8.6639144650739e-16
   4    -3.7657485226426e-16
   5    -1.1092664909852e-18
   6     -0.02161913855236
   7    -6.0778987540758e-16
   8    -8.7774746629759e-16
   9    -0.029407981747414
  10    -1.7241307799958e-17
  11    -0.00028434772451155
  12     0.030098790737914
  13    -9.2971720540623e-17
  14    -2.5678924762466e-16
  15    -4.3721029812971e-16
  16    -5.8869630463903e-16
  17    1.9754662329519e-15
  18    -5.1289276586301e-17
  19    1.3669947761686e-15
  20       0.3080244080218
  21    -2.6607176430477e-16
  22    -1.2139808861831e-16
  23      0.25248399429485
  24    6.6825857651416e-17
  25      0.02243675232897
  26    1.8901248384053e-05
  27    2.1657477454667e-16
  28    5.2260172231036e-17
  29    1.1095606442088e-16
  30    1.1788530047285e-15
  31    -1.9816334136344e-15
  32    5.7871066817868e-16
  33    -2.4866967412462e-16
  34      0.30802440802105
  35    -5.7631630980435e-16
  36    -2.7668869986061e-15
  37      0.25248399429423
  38    -2.5173708136348e-16
  39    -0.022436752329059
  40    1.8901248475442e-05
  41    -2.7087478212927e-16
  42    -3.306621352843e-16
  43    1.2133990602251e-16
  44    7.589458110366e-16
  45    -4.5623324062701e-16
  46    -6.1547208548255e-16
  47    4.3521973368165e-16
  48    -0.021619138554109
  49    1.2079848939401e-15
  50    -1.6037122314392e-16
  51    -0.029407981748605
  52    -1.2574768276465e-16
  53    0.00028434772458353
  54     0.030098790737928
  55    -2.009910015364e-16
  56    -1.4780181497814e-16
  57    -2.8752207777272e-16
  58    -3.9201712300821e-16
  59    1.2913455309093e-14
  60    -6.2612345703213e-16
  61    -1.1994886904437e-16
  62      -0.2496654387855
  63    -7.0077840342875e-15
  64    -1.9106934420794e-15
  65     -0.19838429025205
  66    -4.218083538795e-16
  67     0.016727707411922
  68    -0.00035777077670843
  69    4.2173347693753e-16
  70    3.1895946038111e-17
  71    5.509212015745e-16
  72    5.1451154982187e-16
  73    -1.2886683122124e-14
  74    2.4302600416082e-16
  75    -3.1944011048343e-17
  76     -0.24966543878453
  77    -6.8671756583672e-15
  78    1.0669828277408e-15
  79     -0.19838429025109
  80    -4.4111283137449e-17
  81    -0.016727707412022
  82    -0.00035777077660385
  83    -1.4972811979427e-16
  84    -1.2086064944206e-16
  85    -5.651233457913e-17
  86    -2.0972285931171e-16
  87    4.836136190011e-15
  88    8.0264415640219e-16
  89    8.2222546017417e-16
  90      0.03676107008907
  91    -7.8663482864948e-16
  92    3.681331198721e-15
  93     0.041254590222206
  94    1.2502386268294e-16
  95    -0.00031097083355837
  96    0.0011008550802824
  97    2.3295224740618e-16
  98    -2.895912627217e-16
  99    -4.4443091256294e-16
 100    -8.995123874406e-16
 101    1.0094057581822e-14
 102    -5.934038375652e-17
 103    4.5107128413772e-16
 104    -0.0073304978083471
 105    1.0299332725265e-14
 106    4.8813807863644e-15
 107     0.031267137589873
 108    1.3556617287864e-16
 109    -0.0034258537769075
 110    -0.017021006186938
 111    -1.8026850710256e-19
 112    4.872116367409e-17
 113    -1.7958847436225e-16
 114    -5.4500761090971e-16
 115    -3.8861583742971e-15
 116    -2.0369223278634e-16
 117    -7.7001367936768e-16
 118    -0.0073304978084962
 119    1.283652391509e-14
 120    -7.6875202447772e-15
 121     0.031267137589768
 122    4.170089683617e-17
 123    0.0034258537769107
 124     -0.01702100618698
 125    -1.9134578214839e-16
 126    -1.1958597667864e-16
 127    2.2305828955141e-16
 128    -2.5295712153624e-16
 129    -7.1499569285503e-15
 130    1.1509799276628e-16
 131    -5.7136534896414e-16
 132     0.036761070089144
 133    2.2930204626622e-15
 134    -7.7343568884121e-15
 135     0.041254590222313
 136    -3.4450949850887e-17
 137    0.0003109708335608
 138    0.0011008550802689
 139    3.7298427319189e-16
 140    2.1708400420961e-16
 141    4.6422144584582e-16
 142    1.4898176274588e-15
 143    -2.0304920936542e-15
 144    -2.9037900183562e-16
 145    -1.6591227130416e-16
 146    -0.023574692005335
 147    -5.7766691915733e-15
 148    8.3460997709206e-16
 149    -0.031436359447509
 150    6.3250032088393e-17
 151    0.0025957044517023
 152    0.0031013903092179
 153    2.2266968524055e-16
 154    4.2479749094653e-16
 155    4.3947402365138e-16
 156    8.652087539087e-16
 157    -2.5924659936944e-15
 158    -6.4101224706246e-16
 159    1.4429379421326e-16
 160    -0.023574692005403
 161    -3.3699609884395e-15
 162    -5.4816821314463e-16
 163    -0.031436359447566
 164    5.4433681755809e-17
 165    -0.0025957044516953
 166     0.003101390309214
 167    2.6755772182932e-16
 168    9.618220320626e-17
 169    -5.2700901074433e-17
 170    9.5561787011913e-16
 171    1.0320822410669e-16
 172    1.3793301370118e-16
 173     0.011512000553586
 174    1.0214996013102e-15
 175    1.1637547783036e-15
 176    -7.7704677576303e-17
 177    -8.6103612296922e-18
 178     0.011512000553562
 179    4.8874392231737e-16
 180    -7.4232595339677e-17
 181    3.5211092754992e-17
 182    -1.5862864152144e-17
 183    -0.00090183801714817
 184    -1.2476872621819e-16
 185    -8.9961765286094e-16
 186    1.0538887655222e-16
 187    -1.2972486814339e-16
 188    0.0012109335907513
 189    -2.2081966341967e-16
 190    -1.0798690741478e-15
 191    -1.2015876394617e-17
 192    2.5191481880304e-16
 193    -0.00090183801707112
 194    2.6656930396142e-16
 195    -1.6179189642202e-15
 196    -3.0289640660362e-16
 197    -1.1807446747685e-16
 198     0.001210933590749
 199    3.9687417893738e-16
 200    2.6644539294298e-15
 201    -2.6430662584432e-16
 202    6.0471257312429e-16
 203    -0.0011314784654317
 204    -9.3263757628389e-17
 205    -6.8951556180994e-16
 206    -2.2695567077628e-17
 207    9.1413524559159e-17
 208    -0.0011314784654349
 Sym= A
 Ene=               1
 Spin= Alpha
 Occup=    1.00000
   1    -2.8336268179483e-17
   2    -7.4063235804851e-16
   3    5.7527424179819e-17
   4    9.2577939169172e-16
   5    -1.6100850875816e-15
   6      0.31718764672123
   7    2.0831266426842e-15
   8    3.1735445028475e-15
   9       0.2522741262577
  10    8.1837701207615e-18
  11     0.014593120200331
  12    -0.0046420467816153
  13    1.852106996768e-17
  14    -1.8966022540618e-16
  15    -7.7406990671977e-17
  16    -4.3765631129548e-16
  17    -6.4187783175799e-16
  18    9.1355581680693e-16
  19    1.0030269494636e-15
  20      0.13593581437421
  21    1.4988654052587e-15
  22    3.2420063357224e-16
  23      0.10345443970939
  24    -4.4707665455116e-17
  25    -0.017596372881088
  26    -0.016726171765136
  27    -1.9461764269836e-16
  28    -6.764022942214e-17
  29    2.0317785545678e-16
  30    -5.9881476253358e-16
  31    2.475795515181e-17
  32    -1.1752330010259e-15
  33    -6.6277026298802e-16
  34      -0.1359358143758
  35    1.6700958586471e-15
  36    9.7488598868281e-17
  37     -0.10345443971065
  38    -1.0955932520779e-16
  39    -0.017596372880976
  40     0.016726171765136
  41    -1.5704614000633e-16
  42    -1.7456936328404e-17
  43    6.7664678706731e-17
  44    6.1511505930653e-16
  45    6.6037047724077e-16
  46    3.7919838343912e-16
  47    -1.0978642177547e-15
  48      -0.3171876467213
  49    2.7871144803321e-16
  50    -5.0047021397179e-15
  51     -0.25227412625777
  52    1.7781714673312e-16
  53     0.014593120200332
  54    0.0046420467814578
  55    -2.4258287332322e-16
  56    3.5964897551396e-16
  57    5.7111632584549e-16
  58    7.7762049291548e-16
  59    -8.4653729140492e-15
  60    2.6366322458557e-16
  61    8.5265476916673e-16
  62     -0.18912389570365
  63    -2.3787529739029e-15
  64    3.6115566514583e-15
  65     -0.14573630010719
  66    2.896270618249e-16
  67    -0.021104749066323
  68    -0.017422077601933
  69    1.0409441647141e-16
  70    1.2116908502884e-16
  71    5.6037426085053e-16
  72    1.1578983542181e-15
  73    4.0052877046859e-15
  74    -7.21331590677e-16
  75    -4.4234736371976e-16
  76      0.18912389570506
  77    -2.6574385366072e-15
  78    -3.96966361692e-15
  79      0.14573630010839
  80    8.3841685663086e-17
  81    -0.021104749066222
  82     0.017422077601925
  83    1.3146638819022e-16
  84    -1.246704817942e-16
  85    2.9566234178302e-16
  86    1.0659032151366e-16
  87    -6.6090747829312e-15
  88    -8.3481364446065e-17
  89    -1.2325593527936e-16
  90    -0.013185853668578
  91    -4.2714266869397e-15
  92    1.1147917257316e-15
  93     -0.01539806145844
  94    2.1983846673967e-16
  95    0.0010191021981228
  96     0.002898005259937
  97    -2.0836419109786e-16
  98    -3.2875412368048e-16
  99    6.1870273146013e-17
 100    8.4909436094279e-16
 101    5.2985555587452e-15
 102    -8.9245137011765e-17
 103    8.260542259671e-16
 104     0.030527345120611
 105    3.4341439601922e-15
 106    -6.1916326809674e-15
 107     0.018813825378418
 108    -1.9818607894354e-16
 109    -0.00097331254356935
 110     0.010179512509535
 111    1.262722194337e-16
 112    -1.1811182361578e-16
 113    3.6524666930558e-16
 114    7.1347660345218e-17
 115    -4.2834487142828e-15
 116    -3.6266304812823e-16
 117    -4.9749016252159e-16
 118    -0.030527345120544
 119    3.9252881612033e-15
 120    7.4935635813856e-15
 121    -0.018813825378627
 122    1.3803209885343e-16
 123    -0.00097331254359454
 124    -0.010179512509441
 125    -2.4090671308631e-16
 126    7.155803780443e-18
 127    -2.8462974563031e-16
 128    -4.3019407809613e-16
 129    6.2070333453856e-15
 130    -1.7870538025849e-16
 131    -8.3553293624264e-18
 132     0.013185853668371
 133    -4.681283840205e-15
 134    -1.2505681007897e-15
 135      0.01539806145823
 136    -1.6546534668355e-16
 137    0.0010191021981186
 138    -0.0028980052599397
 139    8.957133772651e-17
 140    5.7148243382307e-17
 141    -3.6837374656054e-16
 142    -1.4541093364379e-16
 143    -2.0269919243121e-15
 144    -1.6975292593602e-16
 145    -1.7921371217753e-16
 146     0.012238795683057
 147    -1.6095676504435e-15
 148    -2.7910555328657e-15
 149      0.01385710098739
 150    5.0955284903549e-17
 151    0.0011887161419803
 152    0.0010114804779055
 153    1.7066735001503e-16
 154    -2.7602851128754e-16
 155    -2.5614021121005e-16
 156    -8.4885160899174e-17
 157    3.1244953707781e-15
 158    2.9072168235252e-17
 159    1.9034298049604e-16
 160    -0.012238795682928
 161    -1.5463830422942e-15
 162    2.5840190791376e-15
 163    -0.013857100987219
 164    -4.9427578828337e-17
 165    0.0011887161419953
 166    -0.0010114804779239
 167    -1.3133980191444e-16
 168    -2.486230441307e-16
 169    2.1433463363299e-16
 170    3.1031496061767e-16
 171    7.9281618381342e-17
 172    -1.4819721459687e-16
 173    0.0051890267018792
 174    -1.2391975452038e-15
 175    4.4757965593089e-16
 176    -2.1169712942443e-17
 177    1.4975531487672e-16
 178    -0.005189026701938
 179    9.1208640723457e-16
 180    7.0116296669169e-16
 181    -2.6326201877807e-16
 182    1.8560368352167e-16
 183    -0.011821499182767
 184    2.2121048267883e-16
 185    2.0243916617246e-15
 186    9.1198154448446e-17
 187    2.4573078530283e-17
 188    0.00040683710984029
 189    -1.1992430836131e-15
 190    1.5789764552389e-15
 191    -1.8012993133393e-16
 192    -3.2919677375739e-16
 193     0.011821499182776
 194    -5.3665804447086e-17
 195    -1.3402519265458e-15
 196    1.7756975265336e-17
 197    -7.9390488483899e-17
 198    -0.00040683710984784
 199    2.695173200613e-16
 200    -9.4316227803807e-16
 201    7.4344650062397e-18
 202    1.8069003792278e-16
 203    0.00052826976727636
 204    4.1219365682938e-16
 205    -2.3429969575005e-17
 206    -1.0415235131839e-16
 207    1.2318181026786e-16
 208    -0.00052826976727004
 Sym= A
 Ene=               2
 Spin= Alpha
 Occup=    1.00000
   1    0.0052505535501773
   2      0.03351954568357
   3     0.034827798207236
   4      0.18253138004646
   5    0.0097245514204887
   6    3.1720120390347e-09
   7     0.096044107139211
   8    0.0083430226721821
   9    5.3352889609138e-10
  10    0.00056178533135906
  11    -3.4196213656315e-10
  12    3.1926726103426e-10
  13    -0.029254193154911
  14     0.013863542343459
  15     0.012441627998685
  16     0.057868493463453
  17     0.034092878853489
  18    -0.078433871941567
  19    -0.093986144177171
  20    -1.2850977083556e-09
  21    -0.033147767271918
  22    -0.038151475392944
  23    -7.4479650006552e-10
  24    -0.002030554584786
  25    -3.1799976329656e-10
  26    -3.2738726165983e-10
  27    -0.0097548319268702
  28    -0.002384622865737
  29     0.012441628002089
  30     0.057868493590011
  31     0.034092878642769
  32     0.078433873594795
  33    -0.093986145307283
  34    -1.266658131277e-09
  35     0.033147767273476
  36    -0.038151475437311
  37    -7.0753095465877e-10
  38    -0.0020305545904253
  39    1.6855378479581e-10
  40    -8.8600154655303e-11
  41    -0.009754831277871
  42    0.0023846232279224
  43    0.0052505535193523
  44     0.033519545630807
  45     0.034827798038527
  46     -0.18253137984044
  47    0.0097245495334863
  48    1.4291046841323e-09
  49    -0.096044107020352
  50    0.0083430226855246
  51    8.4757682372461e-10
  52    0.00056178530951358
  53    -4.6250531947112e-11
  54    -2.1903670069647e-10
  55    -0.029254193082393
  56    -0.013863543148203
  57    -0.018140461516168
  58    -0.084433769576782
  59    -0.063854656457096
  60      0.34514073716483
  61    -0.059182162460222
  62    1.7760440527079e-09
  63      0.15888830962302
  64    -0.054424674428466
  65    1.262715064343e-09
  66    0.0017327824644496
  67    4.6278117927929e-10
  68    -2.8109635519225e-10
  69    -0.041458753366896
  70     0.001787850472538
  71    -0.018140461387574
  72    -0.084433769429828
  73    -0.063854655785271
  74     -0.34514073913284
  75    -0.059182162175185