[Molden Format]
made by pyscf v[2.0.1]
[Atoms] (AU)
C   1   6    -2.73653129824391    10.86023714061417     0.00000000000000
C   2   6    -1.31205574554677    13.15092535428944     0.00000000000000
C   3   6     1.31205574554677    13.15092535428944     0.00000000000000
C   4   6     2.73653129824391    10.86023714061417     0.00000000000000
C   5   6     1.34896209675952     8.66726666484015     0.00000000000000
C   6   6    -1.34896209675952     8.66726666484015     0.00000000000000
C   7   6    -2.81790290516768     3.61294848029470     0.00000000000000
C   8   6    -1.34119532238756     5.80962281927286     0.00000000000000
C   9   6     1.34119532238756     5.80962281927286     0.00000000000000
C   10   6     2.81790290516768     3.61294848029470     0.00000000000000
C   11   6     1.34542830890659     1.42912427896357     0.00000000000000
C   12   6    -1.34542830890659     1.42912427896357     0.00000000000000
H   13   1    -2.31856167401261    14.95336502916084     0.00000000000000
H   14   1     2.31856167401261    14.95336502916084     0.00000000000000
H   15   1     4.79939413034162    10.89946785496014     0.00000000000000
H   16   1     4.87974528515813     3.61326973373587     0.00000000000000
H   17   1    -4.79939413034162    10.89946785496014     0.00000000000000
H   18   1    -4.87974528515813     3.61326973373587     0.00000000000000
H   19   1     2.26113289708708    -0.29271857669513     0.00000000000000
H   20   1    -2.26113289708708    -0.29271857669513     0.00000000000000
[GTO]
1 0
 s    8 1.00
                  6665  0.00069158396281299
                  1000  0.0053257961529341
                   228   0.027060721042034
                 64.71    0.10165684614077
                 21.06     0.2745748236174
                 7.495    0.44829431892377
                 2.797    0.28490261071525
                0.5215   0.015194859206082
 s    8 1.00
                  6665  -0.00029326965268655
                  1000  -0.0023180354739745
                   228  -0.011499786038565
                 64.71  -0.046826727009787
                 21.06   -0.12846616875047
                 7.495   -0.30126627246289
                 2.797   -0.25563070233011
                0.5215      1.093793361012
 s    1 1.00
                0.1596                   1
 p    3 1.00
                 9.439   0.056979251590039
                 2.002    0.31320721150073
                0.5456    0.76037674173753
 p    1 1.00
                0.1517                   1
 d    1 1.00
                  0.55                   1

2 0
 s    8 1.00
                  6665  0.00069158396281299
                  1000  0.0053257961529341
                   228   0.027060721042034
                 64.71    0.10165684614077
                 21.06     0.2745748236174
                 7.495    0.44829431892377
                 2.797    0.28490261071525
                0.5215   0.015194859206082
 s    8 1.00
                  6665  -0.00029326965268655
                  1000  -0.0023180354739745
                   228  -0.011499786038565
                 64.71  -0.046826727009787
                 21.06   -0.12846616875047
                 7.495   -0.30126627246289
                 2.797   -0.25563070233011
                0.5215      1.093793361012
 s    1 1.00
                0.1596                   1
 p    3 1.00
                 9.439   0.056979251590039
                 2.002    0.31320721150073
                0.5456    0.76037674173753
 p    1 1.00
                0.1517                   1
 d    1 1.00
                  0.55                   1

3 0
 s    8 1.00
                  6665  0.00069158396281299
                  1000  0.0053257961529341
                   228   0.027060721042034
                 64.71    0.10165684614077
                 21.06     0.2745748236174
                 7.495    0.44829431892377
                 2.797    0.28490261071525
                0.5215   0.015194859206082
 s    8 1.00
                  6665  -0.00029326965268655
                  1000  -0.0023180354739745
                   228  -0.011499786038565
                 64.71  -0.046826727009787
                 21.06   -0.12846616875047
                 7.495   -0.30126627246289
                 2.797   -0.25563070233011
                0.5215      1.093793361012
 s    1 1.00
                0.1596                   1
 p    3 1.00
                 9.439   0.056979251590039
                 2.002    0.31320721150073
                0.5456    0.76037674173753
 p    1 1.00
                0.1517                   1
 d    1 1.00
                  0.55                   1

4 0
 s    8 1.00
                  6665  0.00069158396281299
                  1000  0.0053257961529341
                   228   0.027060721042034
                 64.71    0.10165684614077
                 21.06     0.2745748236174
                 7.495    0.44829431892377
                 2.797    0.28490261071525
                0.5215   0.015194859206082
 s    8 1.00
                  6665  -0.00029326965268655
                  1000  -0.0023180354739745
                   228  -0.011499786038565
                 64.71  -0.046826727009787
                 21.06   -0.12846616875047
                 7.495   -0.30126627246289
                 2.797   -0.25563070233011
                0.5215      1.093793361012
 s    1 1.00
                0.1596                   1
 p    3 1.00
                 9.439   0.056979251590039
                 2.002    0.31320721150073
                0.5456    0.76037674173753
 p    1 1.00
                0.1517                   1
 d    1 1.00
                  0.55                   1

5 0
 s    8 1.00
                  6665  0.00069158396281299
                  1000  0.0053257961529341
                   228   0.027060721042034
                 64.71    0.10165684614077
                 21.06     0.2745748236174
                 7.495    0.44829431892377
                 2.797    0.28490261071525
                0.5215   0.015194859206082
 s    8 1.00
                  6665  -0.00029326965268655
                  1000  -0.0023180354739745
                   228  -0.011499786038565
                 64.71  -0.046826727009787
                 21.06   -0.12846616875047
                 7.495   -0.30126627246289
                 2.797   -0.25563070233011
                0.5215      1.093793361012
 s    1 1.00
                0.1596                   1
 p    3 1.00
                 9.439   0.056979251590039
                 2.002    0.31320721150073
                0.5456    0.76037674173753
 p    1 1.00
                0.1517                   1
 d    1 1.00
                  0.55                   1

6 0
 s    8 1.00
                  6665  0.00069158396281299
                  1000  0.0053257961529341
                   228   0.027060721042034
                 64.71    0.10165684614077
                 21.06     0.2745748236174
                 7.495    0.44829431892377
                 2.797    0.28490261071525
                0.5215   0.015194859206082
 s    8 1.00
                  6665  -0.00029326965268655
                  1000  -0.0023180354739745
                   228  -0.011499786038565
                 64.71  -0.046826727009787
                 21.06   -0.12846616875047
                 7.495   -0.30126627246289
                 2.797   -0.25563070233011
                0.5215      1.093793361012
 s    1 1.00
                0.1596                   1
 p    3 1.00
                 9.439   0.056979251590039
                 2.002    0.31320721150073
                0.5456    0.76037674173753
 p    1 1.00
                0.1517                   1
 d    1 1.00
                  0.55                   1

7 0
 s    8 1.00
                  6665  0.00069158396281299
                  1000  0.0053257961529341
                   228   0.027060721042034
                 64.71    0.10165684614077
                 21.06     0.2745748236174
                 7.495    0.44829431892377
                 2.797    0.28490261071525
                0.5215   0.015194859206082
 s    8 1.00
                  6665  -0.00029326965268655
                  1000  -0.0023180354739745
                   228  -0.011499786038565
                 64.71  -0.046826727009787
                 21.06   -0.12846616875047
                 7.495   -0.30126627246289
                 2.797   -0.25563070233011
                0.5215      1.093793361012
 s    1 1.00
                0.1596                   1
 p    3 1.00
                 9.439   0.056979251590039
                 2.002    0.31320721150073
                0.5456    0.76037674173753
 p    1 1.00
                0.1517                   1
 d    1 1.00
                  0.55                   1

8 0
 s    8 1.00
                  6665  0.00069158396281299
                  1000  0.0053257961529341
                   228   0.027060721042034
                 64.71    0.10165684614077
                 21.06     0.2745748236174
                 7.495    0.44829431892377
                 2.797    0.28490261071525
                0.5215   0.015194859206082
 s    8 1.00
                  6665  -0.00029326965268655
                  1000  -0.0023180354739745
                   228  -0.011499786038565
                 64.71  -0.046826727009787
                 21.06   -0.12846616875047
                 7.495   -0.30126627246289
                 2.797   -0.25563070233011
                0.5215      1.093793361012
 s    1 1.00
                0.1596                   1
 p    3 1.00
                 9.439   0.056979251590039
                 2.002    0.31320721150073
                0.5456    0.76037674173753
 p    1 1.00
                0.1517                   1
 d    1 1.00
                  0.55                   1

9 0
 s    8 1.00
                  6665  0.00069158396281299
                  1000  0.0053257961529341
                   228   0.027060721042034
                 64.71    0.10165684614077
                 21.06     0.2745748236174
                 7.495    0.44829431892377
                 2.797    0.28490261071525
                0.5215   0.015194859206082
 s    8 1.00
                  6665  -0.00029326965268655
                  1000  -0.0023180354739745
                   228  -0.011499786038565
                 64.71  -0.046826727009787
                 21.06   -0.12846616875047
                 7.495   -0.30126627246289
                 2.797   -0.25563070233011
                0.5215      1.093793361012
 s    1 1.00
                0.1596                   1
 p    3 1.00
                 9.439   0.056979251590039
                 2.002    0.31320721150073
                0.5456    0.76037674173753
 p    1 1.00
                0.1517                   1
 d    1 1.00
                  0.55                   1

10 0
 s    8 1.00
                  6665  0.00069158396281299
                  1000  0.0053257961529341
                   228   0.027060721042034
                 64.71    0.10165684614077
                 21.06     0.2745748236174
                 7.495    0.44829431892377
                 2.797    0.28490261071525
                0.5215   0.015194859206082
 s    8 1.00
                  6665  -0.00029326965268655
                  1000  -0.0023180354739745
                   228  -0.011499786038565
                 64.71  -0.046826727009787
                 21.06   -0.12846616875047
                 7.495   -0.30126627246289
                 2.797   -0.25563070233011
                0.5215      1.093793361012
 s    1 1.00
                0.1596                   1
 p    3 1.00
                 9.439   0.056979251590039
                 2.002    0.31320721150073
                0.5456    0.76037674173753
 p    1 1.00
                0.1517                   1
 d    1 1.00
                  0.55                   1

11 0
 s    8 1.00
                  6665  0.00069158396281299
                  1000  0.0053257961529341
                   228   0.027060721042034
                 64.71    0.10165684614077
                 21.06     0.2745748236174
                 7.495    0.44829431892377
                 2.797    0.28490261071525
                0.5215   0.015194859206082
 s    8 1.00
                  6665  -0.00029326965268655
                  1000  -0.0023180354739745
                   228  -0.011499786038565
                 64.71  -0.046826727009787
                 21.06   -0.12846616875047
                 7.495   -0.30126627246289
                 2.797   -0.25563070233011
                0.5215      1.093793361012
 s    1 1.00
                0.1596                   1
 p    3 1.00
                 9.439   0.056979251590039
                 2.002    0.31320721150073
                0.5456    0.76037674173753
 p    1 1.00
                0.1517                   1
 d    1 1.00
                  0.55                   1

12 0
 s    8 1.00
                  6665  0.00069158396281299
                  1000  0.0053257961529341
                   228   0.027060721042034
                 64.71    0.10165684614077
                 21.06     0.2745748236174
                 7.495    0.44829431892377
                 2.797    0.28490261071525
                0.5215   0.015194859206082
 s    8 1.00
                  6665  -0.00029326965268655
                  1000  -0.0023180354739745
                   228  -0.011499786038565
                 64.71  -0.046826727009787
                 21.06   -0.12846616875047
                 7.495   -0.30126627246289
                 2.797   -0.25563070233011
                0.5215      1.093793361012
 s    1 1.00
                0.1596                   1
 p    3 1.00
                 9.439   0.056979251590039
                 2.002    0.31320721150073
                0.5456    0.76037674173753
 p    1 1.00
                0.1517                   1
 d    1 1.00
                  0.55                   1

13 0
 s    3 1.00
                 13.01   0.033498726389998
                 1.962    0.23480080117413
                0.4446     0.8136829578829
 s    1 1.00
                 0.122                   1
 p    1 1.00
                 0.727                   1

14 0
 s    3 1.00
                 13.01   0.033498726389998
                 1.962    0.23480080117413
                0.4446     0.8136829578829
 s    1 1.00
                 0.122                   1
 p    1 1.00
                 0.727                   1

15 0
 s    3 1.00
                 13.01   0.033498726389998
                 1.962    0.23480080117413
                0.4446     0.8136829578829
 s    1 1.00
                 0.122                   1
 p    1 1.00
                 0.727                   1

16 0
 s    3 1.00
                 13.01   0.033498726389998
                 1.962    0.23480080117413
                0.4446     0.8136829578829
 s    1 1.00
                 0.122                   1
 p    1 1.00
                 0.727                   1

17 0
 s    3 1.00
                 13.01   0.033498726389998
                 1.962    0.23480080117413
                0.4446     0.8136829578829
 s    1 1.00
                 0.122                   1
 p    1 1.00
                 0.727                   1

18 0
 s    3 1.00
                 13.01   0.033498726389998
                 1.962    0.23480080117413
                0.4446     0.8136829578829
 s    1 1.00
                 0.122                   1
 p    1 1.00
                 0.727                   1

19 0
 s    3 1.00
                 13.01   0.033498726389998
                 1.962    0.23480080117413
                0.4446     0.8136829578829
 s    1 1.00
                 0.122                   1
 p    1 1.00
                 0.727                   1

20 0
 s    3 1.00
                 13.01   0.033498726389998
                 1.962    0.23480080117413
                0.4446     0.8136829578829
 s    1 1.00
                 0.122                   1
 p    1 1.00
                 0.727                   1

[5d]
[7f]
[9g]

[MO]
 Sym= A
 Ene=               0
 Spin= Alpha
 Occup=    1.00000
   1    -0.032157967191699
   2    -0.080589997330755
   3    -0.060434274844982
   4    -0.045317625987637
   5    -0.014884566237607
   6    -3.0732974686051e-16
   7    -0.019731109294936
   8    -0.011099369914599
   9    -1.1593482107899e-16
  10    0.0053309295363573
  11    -6.7336185747807e-17
  12    2.9314010321494e-17
  13    0.0036126127285577
  14    -0.0014757472532637
  15     -0.04024064198841
  16     -0.17229238416427
  17    -0.094995894826111
  18    -0.011221608999206
  19    -0.025923289577772
  20    -1.5616213276516e-16
  21    -0.0036931762985153
  22     -0.01226370786693
  23    -3.9287426642864e-16
  24    0.0080551637218018
  25    -5.2261673872661e-17
  26    9.8305454570214e-17
  27    -0.0039950412832576
  28    -0.0027358783090392
  29    -0.040240641988298
  30     -0.17229238416412
  31    -0.094995894830186
  32     0.011221608999191
  33    -0.025923289577737
  34    6.4403916538975e-17
  35    0.0036931763005963
  36    -0.012263707865504
  37    8.1147802003222e-17
  38    0.0080551637219332
  39    -4.9723018030049e-18
  40    -4.2428458299589e-17
  41    -0.0039950412832903
  42    0.0027358783090681
  43    -0.032157967191953
  44    -0.080589997331183
  45    -0.060434274835019
  46     0.045317625987628
  47    -0.014884566237614
  48    2.6743067170269e-16
  49     0.019731109291486
  50    -0.011099369917518
  51    3.4281858059437e-16
  52    0.0053309295362628
  53    -4.8941948893759e-17
  54    -1.4892701337455e-17
  55     0.003612612728563
  56    0.0014757472531917
  57    -0.0071236182921253
  58    -0.083778321303698
  59    -0.087593907924375
  60     0.033352431937692
  61    -0.039454660972841
  62    2.8626587199892e-16
  63    0.0096977835401581
  64     0.032554015827255
  65    2.0175242007495e-16
  66    0.0047746966779438
  67    3.7352575807279e-17
  68    -1.7849704053355e-17
  69    -0.0029768437621899
  70    -0.0010741076159651
  71    -0.0071236182919024
  72    -0.083778321303335
  73    -0.087593907933855
  74    -0.033352431937705
  75    -0.039454660972877
  76    -1.8025072398935e-16
  77    -0.0096977835474322
  78     0.032554015840421
  79    -1.6456623514288e-16
  80     0.004774696678047
  81    5.0918169589852e-17
  82    -3.8154903700591e-17
  83    -0.0029768437621661
  84    0.0010741076160046
  85     0.029947106594826
  86     0.087996611846702
  87     0.067568376696055
  88     0.037835586955185
  89    -0.015828666674747
  90    7.8525149791812e-17
  91     0.015352449291088
  92    -0.011348491290506
  93    4.0390946777297e-17
  94    -0.0055089463802786
  95    1.8304481638133e-17
  96    2.1409304317459e-17
  97    -0.0019385551607407
  98    -0.0022630499813652
  99    0.0057121869309375
 100     0.071315176122507
 101     0.079421312619792
 102     0.026270190346222
 103    -0.046656520803593
 104    2.1763152814061e-16
 105    0.0085460141821974
 106     0.031511849742203
 107    1.6253488164663e-16
 108    -0.0038749800462596
 109    1.8058309536977e-17
 110    -1.4801984727331e-17
 111    0.0035673650163945
 112    0.0011190855655516
 113    0.0057121869311437
 114      0.07131517612284
 115     0.079421312609892
 116    -0.026270190346216
 117    -0.046656520803559
 118    2.6142577462662e-16
 119    -0.0085460141734689
 120     0.031511849728456
 121    1.8601092762398e-16
 122    -0.0038749800461654
 123    -1.6075012324546e-17
 124    8.5607564439342e-18
 125    0.0035673650163888
 126    -0.0011190855655715
 127     0.029947106595036
 128     0.087996611847046
 129     0.067568376687077
 130    -0.037835586955159
 131    -0.015828666674775
 132    3.5843600342377e-17
 133    -0.015352449287806
 134    -0.011348491295152
 135    9.8428765219447e-18
 136    -0.0055089463801944
 137    -6.1680485149126e-18
 138    2.164900615656e-17
 139    -0.0019385551607704
 140    0.0022630499813839
 141     0.039679687948203
 142      0.17048754657342
 143     0.087700283883643
 144    -0.019984867969765
 145    -0.019494268740607
 146    -1.3069306859247e-16
 147    -0.014160301032832
 148    -0.0057184016252346
 149    -1.1936466566266e-16
 150    -0.0083241848151941
 151    8.8216964486603e-18
 152    2.5060029651448e-18
 153    0.0048079037826733
 154    0.0029809233266958
 155     0.039679687948258
 156      0.17048754657351
 157      0.08770028388088
 158      0.01998486796981
 159    -0.019494268740637
 160    -9.4222547547187e-17
 161     0.014160301029574
 162    -0.0057184016254532
 163    -9.3760510536735e-17
 164    -0.0083241848151437
 165    -1.0036213174912e-17
 166    9.1214221943841e-18
 167    0.0048079037826209
 168    -0.0029809233266743
 169     -0.10860751432864
 170    -0.022865814731878
 171    -0.0062504901656203
 172     0.011218996529632
 173    1.8726353871989e-18
 174     -0.10860751432864
 175    -0.022865814732287
 176    0.0062504901655666
 177     0.011218996529581
 178    -3.263027679082e-18
 179    -0.0072026516044526
 180    0.0020503873045262
 181    0.0025607552745391
 182    0.00020397407997929
 183    1.2843909825088e-17
 184     0.018981174411165
 185    0.0022231150845597
 186    -0.0034080692200733
 187    9.9867027451767e-05
 188    1.2448656947977e-18
 189    -0.0072026516043963
 190    0.0020503873036403
 191    -0.0025607552744961
 192    0.00020397407994727
 193    -3.0502610131548e-18
 194     0.018981174411096
 195    0.0022231150854318
 196    0.0034080692200208
 197    9.9867027338665e-05
 198    2.8879016628843e-18
 199       0.1038654605134
 200     0.019271855234506
 201    -0.0061832286072742
 202      0.01085242816223
 203    -5.6189439293927e-18
 204      0.10386546051333
 205     0.019271855234166
 206    0.0061832286073489
 207     0.010852428162225
 208    -4.5244723084838e-18
 Sym= A
 Ene=               1
 Spin= Alpha
 Occup=    1.00000
   1     -0.24116066937284
   2     0.016573823925338
   3     0.029699090720532
   4    0.0023974004578264
   5    -0.012604900274879
   6    1.9518104602996e-17
   7    0.0082277629268006
   8    -0.0058977227079562
   9    2.2702554973191e-17
  10    -0.00062368056031509
  11    -5.8253645957978e-17
  12    7.1174573875212e-18
  13    6.2535195066815e-05
  14    -0.0011619683314192
  15      0.17660450364759
  16    -0.0010975160409202
  17    -0.011556628139736
  18     0.001564917380604
  19    -0.0038430198635527
  20    9.530807047739e-17
  21    -0.0011529400287394
  22    0.0026893520647571
  23    6.5424912249209e-17
  24    -0.00038443876497005
  25    -4.4618355195748e-17
  26    -1.5242131599914e-17
  27    -0.00043584813135248
  28    0.00064637559980076
  29     -0.17660450364768
  30    0.0010975160407859
  31     0.011556628139573
  32    0.0015649173806018
  33    0.0038430198635216
  34    2.4592378531155e-17
  35    -0.0011529400288528
  36    -0.0026893520648129
  37    -6.1790349182732e-18
  38    0.00038443876497367
  39    3.2428012337422e-17
  40    -1.2657999353424e-17
  41    0.00043584813134918
  42    0.00064637559980379
  43      0.24116066937288
  44    -0.016573823925447
  45    -0.029699090721243
  46    0.0023974004578007
  47     0.012604900274898
  48    -2.9528453537125e-18
  49    0.0082277629269915
  50    0.0058977227083213
  51    -9.0969832079111e-17
  52    0.00062368056034525
  53    5.2185363635115e-18
  54    1.2837035033766e-17
  55    -6.253519505657e-05
  56    -0.0011619683314333
  57      0.36554034219921
  58    -0.0093541876992255
  59    -0.025536574091134
  60    -0.0085468937316475
  61    -0.013752974600332
  62    -6.6577545547007e-17
  63    0.0040494018306155
  64     0.020311690603671
  65    -3.1939118455888e-17
  66    0.00013382180269728
  67    -7.3781427079216e-18
  68    4.8562743321486e-18
  69    -6.4443077290394e-05
  70    -0.0017865116457432
  71     -0.36554034219918
  72    0.0093541876990889
  73     0.025536574091511
  74    -0.0085468937316105
  75     0.013752974600346
  76    -2.3487888891602e-17
  77    0.0040494018302644
  78    -0.020311690603247
  79    -1.4640303479725e-17
  80    -0.00013382180270106
  81    -4.8548650869564e-18
  82    1.0146336126508e-17
  83    6.444307728048e-05
  84    -0.0017865116457516
  85     0.093280973136708
  86    -0.012573458044604
  87    -0.020526379188325
  88    -0.0049995928919216
  89    -0.013119522704837
  90    -4.8073848911588e-17
  91    -0.0070155520151259
  92    -0.0050150739249741
  93    -3.3650353646733e-17
  94    0.0006839910745959
  95    -3.2833622242285e-18
  96    -4.4510372496691e-18
  97    0.00048211074588383
  98    -0.0011946846629165
  99      0.50866494899896
 100    -0.012770293645537
 101    -0.036370172733708
 102     0.010016683570019
 103    0.0076868963648116
 104    -7.6660154050411e-17
 105    -0.0036103893401541
 106    -0.020044141806734
 107    -4.9278390832141e-17
 108    0.00019404140609421
 109    -2.3463090737328e-18
 110    1.528199098053e-18
 111    0.0006842954388688
 112    -0.0011845041651646
 113     -0.50866494899886
 114     0.012770293645444
 115       0.0363701727333
 116     0.010016683570004
 117    -0.0076868963648208
 118    -5.8556364873269e-17
 119    -0.0036103893404953
 120     0.020044141807112
 121    -3.5955067842987e-17
 122    -0.00019404140607071
 123    5.8823883520961e-18
 124    -4.8353528935633e-18
 125    -0.00068429543885497
 126    -0.0011845041651484
 127    -0.093280973136698
 128      0.01257345804441
 129     0.020526379188763
 130    -0.004999592891953
 131     0.013119522704836
 132    6.3332560062137e-18
 133    -0.0070155520153466
 134    0.0050150739252361
 135    9.6337794480273e-18
 136    -0.00068399107460897
 137    8.7921520582092e-19
 138    -4.4511193647604e-18
 139    -0.00048211074588122
 140    -0.0011946846629224
 141     0.094509158947306
 142    -0.00032412718454386
 143    -0.0061532677015498
 144    -0.0010510342820638
 145    0.0012069485151435
 146    2.9341981065074e-17
 147    -0.00025113135387909
 148    -0.0023068399903766
 149    2.7955744457165e-17
 150    -0.00021226308028305
 151    7.2290643916723e-20
 152    4.3191315975395e-19
 153    -0.00068857415489902
 154    6.1039907002342e-05
 155    -0.094509158947328
 156    0.00032412718439972
 157    0.0061532677014926
 158    -0.0010510342820438
 159    -0.0012069485151216
 160    2.627235062372e-18
 161    -0.00025113135393318
 162    0.0023068399903537
 163    7.4855826363603e-18
 164    0.00021226308028977
 165    3.3282690123146e-18
 166    -2.521431870931e-18
 167    0.00068857415489882
 168    6.1039907010324e-05
 169    -0.0045346478392004
 170    -0.0015295817203869
 171    -0.00028772885737188
 172    0.00035748146576469
 173    8.8523312339828e-19
 174    0.0045346478391221
 175    0.0015295817203891
 176    -0.00028772885736651
 177    -0.00035748146575327
 178    1.6508910029002e-18
 179    -0.0079324623975283
 180    -0.0027705004654254
 181    0.0010118525542645
 182    0.00031753494988395
 183    -1.3247908786248e-18
 184    0.0029653049544197
 185    0.00097586915937347
 186    -0.00055069943983278
 187    0.00033092376240073
 188    3.0852579522296e-19
 189    0.0079324623974353
 190     0.002770500465366
 191    0.0010118525542586
 192    -0.00031753494989878
 193    5.9136040534577e-18
 194    -0.0029653049545432
 195    -0.00097586915934086
 196    -0.00055069943985251
 197    -0.00033092376241197
 198    -1.6839853876307e-18
 199    -0.0013344561776122
 200    0.00020312092482107
 201    0.00018408684094796
 202    -0.00017630254139466
 203    1.2632063914968e-18
 204    0.0013344561775058
 205    -0.00020312092484468
 206    0.0001840868409427
 207    0.00017630254138752
 208    1.308802235728e-19
 Sym= A
 Ene=               2
 Spin= Alpha
 Occup=    1.00000
   1     -0.35789258982596
   2    0.0077070392459054
   3     0.017180195503454
   4    -0.0088417268750694
   5    0.0010535956797423
   6    -8.9270490035644e-17
   7     0.001554599890977
   8    0.0014413709469682
   9    1.6015717728315e-17
  10    0.00029902947347848
  11    -4.3532311600547e-17
  12    6.929443667655e-17
  13    0.0010626480860532
  14    0.00010370308828987
  15      0.30897920491917
  16    -0.0043026973371177
  17    -0.015088249918241
  18    0.0030980838465749
  19    -0.0079785105907271
  20    9.4428013990255e-17
  21    -0.00056074239118666
  22    0.00077412305641289
  23    6.0737353404186e-17
  24    -0.00049899974479572
  25    5.8602339524594e-17
  26    -4.4603777334843e-18
  27    0.00064958191836349
  28    0.0014514020504504
  29     -0.30897920491923
  30    0.0043026973372294
  31     0.015088249918556
  32    0.0030980838465934
  33    0.0079785105907453
  34    9.2184121977185e-17
  35    -0.00056074239110623
  36    -0.00077412305646143
  37    7.1179738285323e-17
  38    0.00049899974478235
  39    1.316035420154e-17
  40    -2.2607063927341e-17
  41    -0.00064958191836194
  42    0.0014514020504407
  43        0.357892589826
  44    -0.0077070392457203
  45    -0.017180195503696
  46    -0.0088417268750455
  47    -0.0010535956797472
  48    -3.0922247415736e-17
  49    0.0015545998911647
  50    -0.0014413709470464
  51    -1.5280067654433e-16
  52    -0.00029902947347325
  53    2.5624199723906e-18
  54    1.3578260603654e-17
  55    -0.0010626480860589
  56    0.00010370308829278
  57     -0.28956071877563
  58    -9.9453247455027e-05
  59     0.010517556781468
  60    -8.2147610607198e-06
  61    -0.0020754907778656
  62    -1.1178909301242e-16
  63    -0.0034447569269721
  64    0.0038219188958732
  65    -9.247009990637e-17
  66    0.00063126433944265
  67    -2.6343047429152e-18
  68    -1.6298486742878e-17
  69    -0.00021087601725076
  70    -0.0011967519867933
  71      0.28956071877555
  72    9.9453247588009e-05
  73    -0.010517556781492
  74    -8.2147610883746e-06
  75    0.0020754907778549
  76    -7.5726277864352e-17
  77    -0.003444756926985
  78    -0.0038219188956134
  79    -8.6568779987213e-17
  80    -0.00063126433944412