[Molden Format]
made by pyscf v[2.0.1]
[Atoms] (AU)
C   1   6    -2.73653129824391    10.86023714061417     0.00000000000000
C   2   6    -1.31205574554677    13.15092535428944     0.00000000000000
C   3   6     1.31205574554677    13.15092535428944     0.00000000000000
C   4   6     2.73653129824391    10.86023714061417     0.00000000000000
C   5   6     1.34896209675952     8.66726666484015     0.00000000000000
C   6   6    -1.34896209675952     8.66726666484015     0.00000000000000
C   7   6    -2.81790290516768     3.61294848029470     0.00000000000000
C   8   6    -1.34119532238756     5.80962281927286     0.00000000000000
C   9   6     1.34119532238756     5.80962281927286     0.00000000000000
C   10   6     2.81790290516768     3.61294848029470     0.00000000000000
C   11   6     1.34542830890659     1.42912427896357     0.00000000000000
C   12   6    -1.34542830890659     1.42912427896357     0.00000000000000
H   13   1    -2.31856167401261    14.95336502916084     0.00000000000000
H   14   1     2.31856167401261    14.95336502916084     0.00000000000000
H   15   1     4.79939413034162    10.89946785496014     0.00000000000000
H   16   1     4.87974528515813     3.61326973373587     0.00000000000000
H   17   1    -4.79939413034162    10.89946785496014     0.00000000000000
H   18   1    -4.87974528515813     3.61326973373587     0.00000000000000
H   19   1     2.26113289708708    -0.29271857669513     0.00000000000000
H   20   1    -2.26113289708708    -0.29271857669513     0.00000000000000
[GTO]
1 0
 s    8 1.00
                  6665  0.00069158396281299
                  1000  0.0053257961529341
                   228   0.027060721042034
                 64.71    0.10165684614077
                 21.06     0.2745748236174
                 7.495    0.44829431892377
                 2.797    0.28490261071525
                0.5215   0.015194859206082
 s    8 1.00
                  6665  -0.00029326965268655
                  1000  -0.0023180354739745
                   228  -0.011499786038565
                 64.71  -0.046826727009787
                 21.06   -0.12846616875047
                 7.495   -0.30126627246289
                 2.797   -0.25563070233011
                0.5215      1.093793361012
 s    1 1.00
                0.1596                   1
 p    3 1.00
                 9.439   0.056979251590039
                 2.002    0.31320721150073
                0.5456    0.76037674173753
 p    1 1.00
                0.1517                   1
 d    1 1.00
                  0.55                   1

2 0
 s    8 1.00
                  6665  0.00069158396281299
                  1000  0.0053257961529341
                   228   0.027060721042034
                 64.71    0.10165684614077
                 21.06     0.2745748236174
                 7.495    0.44829431892377
                 2.797    0.28490261071525
                0.5215   0.015194859206082
 s    8 1.00
                  6665  -0.00029326965268655
                  1000  -0.0023180354739745
                   228  -0.011499786038565
                 64.71  -0.046826727009787
                 21.06   -0.12846616875047
                 7.495   -0.30126627246289
                 2.797   -0.25563070233011
                0.5215      1.093793361012
 s    1 1.00
                0.1596                   1
 p    3 1.00
                 9.439   0.056979251590039
                 2.002    0.31320721150073
                0.5456    0.76037674173753
 p    1 1.00
                0.1517                   1
 d    1 1.00
                  0.55                   1

3 0
 s    8 1.00
                  6665  0.00069158396281299
                  1000  0.0053257961529341
                   228   0.027060721042034
                 64.71    0.10165684614077
                 21.06     0.2745748236174
                 7.495    0.44829431892377
                 2.797    0.28490261071525
                0.5215   0.015194859206082
 s    8 1.00
                  6665  -0.00029326965268655
                  1000  -0.0023180354739745
                   228  -0.011499786038565
                 64.71  -0.046826727009787
                 21.06   -0.12846616875047
                 7.495   -0.30126627246289
                 2.797   -0.25563070233011
                0.5215      1.093793361012
 s    1 1.00
                0.1596                   1
 p    3 1.00
                 9.439   0.056979251590039
                 2.002    0.31320721150073
                0.5456    0.76037674173753
 p    1 1.00
                0.1517                   1
 d    1 1.00
                  0.55                   1

4 0
 s    8 1.00
                  6665  0.00069158396281299
                  1000  0.0053257961529341
                   228   0.027060721042034
                 64.71    0.10165684614077
                 21.06     0.2745748236174
                 7.495    0.44829431892377
                 2.797    0.28490261071525
                0.5215   0.015194859206082
 s    8 1.00
                  6665  -0.00029326965268655
                  1000  -0.0023180354739745
                   228  -0.011499786038565
                 64.71  -0.046826727009787
                 21.06   -0.12846616875047
                 7.495   -0.30126627246289
                 2.797   -0.25563070233011
                0.5215      1.093793361012
 s    1 1.00
                0.1596                   1
 p    3 1.00
                 9.439   0.056979251590039
                 2.002    0.31320721150073
                0.5456    0.76037674173753
 p    1 1.00
                0.1517                   1
 d    1 1.00
                  0.55                   1

5 0
 s    8 1.00
                  6665  0.00069158396281299
                  1000  0.0053257961529341
                   228   0.027060721042034
                 64.71    0.10165684614077
                 21.06     0.2745748236174
                 7.495    0.44829431892377
                 2.797    0.28490261071525
                0.5215   0.015194859206082
 s    8 1.00
                  6665  -0.00029326965268655
                  1000  -0.0023180354739745
                   228  -0.011499786038565
                 64.71  -0.046826727009787
                 21.06   -0.12846616875047
                 7.495   -0.30126627246289
                 2.797   -0.25563070233011
                0.5215      1.093793361012
 s    1 1.00
                0.1596                   1
 p    3 1.00
                 9.439   0.056979251590039
                 2.002    0.31320721150073
                0.5456    0.76037674173753
 p    1 1.00
                0.1517                   1
 d    1 1.00
                  0.55                   1

6 0
 s    8 1.00
                  6665  0.00069158396281299
                  1000  0.0053257961529341
                   228   0.027060721042034
                 64.71    0.10165684614077
                 21.06     0.2745748236174
                 7.495    0.44829431892377
                 2.797    0.28490261071525
                0.5215   0.015194859206082
 s    8 1.00
                  6665  -0.00029326965268655
                  1000  -0.0023180354739745
                   228  -0.011499786038565
                 64.71  -0.046826727009787
                 21.06   -0.12846616875047
                 7.495   -0.30126627246289
                 2.797   -0.25563070233011
                0.5215      1.093793361012
 s    1 1.00
                0.1596                   1
 p    3 1.00
                 9.439   0.056979251590039
                 2.002    0.31320721150073
                0.5456    0.76037674173753
 p    1 1.00
                0.1517                   1
 d    1 1.00
                  0.55                   1

7 0
 s    8 1.00
                  6665  0.00069158396281299
                  1000  0.0053257961529341
                   228   0.027060721042034
                 64.71    0.10165684614077
                 21.06     0.2745748236174
                 7.495    0.44829431892377
                 2.797    0.28490261071525
                0.5215   0.015194859206082
 s    8 1.00
                  6665  -0.00029326965268655
                  1000  -0.0023180354739745
                   228  -0.011499786038565
                 64.71  -0.046826727009787
                 21.06   -0.12846616875047
                 7.495   -0.30126627246289
                 2.797   -0.25563070233011
                0.5215      1.093793361012
 s    1 1.00
                0.1596                   1
 p    3 1.00
                 9.439   0.056979251590039
                 2.002    0.31320721150073
                0.5456    0.76037674173753
 p    1 1.00
                0.1517                   1
 d    1 1.00
                  0.55                   1

8 0
 s    8 1.00
                  6665  0.00069158396281299
                  1000  0.0053257961529341
                   228   0.027060721042034
                 64.71    0.10165684614077
                 21.06     0.2745748236174
                 7.495    0.44829431892377
                 2.797    0.28490261071525
                0.5215   0.015194859206082
 s    8 1.00
                  6665  -0.00029326965268655
                  1000  -0.0023180354739745
                   228  -0.011499786038565
                 64.71  -0.046826727009787
                 21.06   -0.12846616875047
                 7.495   -0.30126627246289
                 2.797   -0.25563070233011
                0.5215      1.093793361012
 s    1 1.00
                0.1596                   1
 p    3 1.00
                 9.439   0.056979251590039
                 2.002    0.31320721150073
                0.5456    0.76037674173753
 p    1 1.00
                0.1517                   1
 d    1 1.00
                  0.55                   1

9 0
 s    8 1.00
                  6665  0.00069158396281299
                  1000  0.0053257961529341
                   228   0.027060721042034
                 64.71    0.10165684614077
                 21.06     0.2745748236174
                 7.495    0.44829431892377
                 2.797    0.28490261071525
                0.5215   0.015194859206082
 s    8 1.00
                  6665  -0.00029326965268655
                  1000  -0.0023180354739745
                   228  -0.011499786038565
                 64.71  -0.046826727009787
                 21.06   -0.12846616875047
                 7.495   -0.30126627246289
                 2.797   -0.25563070233011
                0.5215      1.093793361012
 s    1 1.00
                0.1596                   1
 p    3 1.00
                 9.439   0.056979251590039
                 2.002    0.31320721150073
                0.5456    0.76037674173753
 p    1 1.00
                0.1517                   1
 d    1 1.00
                  0.55                   1

10 0
 s    8 1.00
                  6665  0.00069158396281299
                  1000  0.0053257961529341
                   228   0.027060721042034
                 64.71    0.10165684614077
                 21.06     0.2745748236174
                 7.495    0.44829431892377
                 2.797    0.28490261071525
                0.5215   0.015194859206082
 s    8 1.00
                  6665  -0.00029326965268655
                  1000  -0.0023180354739745
                   228  -0.011499786038565
                 64.71  -0.046826727009787
                 21.06   -0.12846616875047
                 7.495   -0.30126627246289
                 2.797   -0.25563070233011
                0.5215      1.093793361012
 s    1 1.00
                0.1596                   1
 p    3 1.00
                 9.439   0.056979251590039
                 2.002    0.31320721150073
                0.5456    0.76037674173753
 p    1 1.00
                0.1517                   1
 d    1 1.00
                  0.55                   1

11 0
 s    8 1.00
                  6665  0.00069158396281299
                  1000  0.0053257961529341
                   228   0.027060721042034
                 64.71    0.10165684614077
                 21.06     0.2745748236174
                 7.495    0.44829431892377
                 2.797    0.28490261071525
                0.5215   0.015194859206082
 s    8 1.00
                  6665  -0.00029326965268655
                  1000  -0.0023180354739745
                   228  -0.011499786038565
                 64.71  -0.046826727009787
                 21.06   -0.12846616875047
                 7.495   -0.30126627246289
                 2.797   -0.25563070233011
                0.5215      1.093793361012
 s    1 1.00
                0.1596                   1
 p    3 1.00
                 9.439   0.056979251590039
                 2.002    0.31320721150073
                0.5456    0.76037674173753
 p    1 1.00
                0.1517                   1
 d    1 1.00
                  0.55                   1

12 0
 s    8 1.00
                  6665  0.00069158396281299
                  1000  0.0053257961529341
                   228   0.027060721042034
                 64.71    0.10165684614077
                 21.06     0.2745748236174
                 7.495    0.44829431892377
                 2.797    0.28490261071525
                0.5215   0.015194859206082
 s    8 1.00
                  6665  -0.00029326965268655
                  1000  -0.0023180354739745
                   228  -0.011499786038565
                 64.71  -0.046826727009787
                 21.06   -0.12846616875047
                 7.495   -0.30126627246289
                 2.797   -0.25563070233011
                0.5215      1.093793361012
 s    1 1.00
                0.1596                   1
 p    3 1.00
                 9.439   0.056979251590039
                 2.002    0.31320721150073
                0.5456    0.76037674173753
 p    1 1.00
                0.1517                   1
 d    1 1.00
                  0.55                   1

13 0
 s    3 1.00
                 13.01   0.033498726389998
                 1.962    0.23480080117413
                0.4446     0.8136829578829
 s    1 1.00
                 0.122                   1
 p    1 1.00
                 0.727                   1

14 0
 s    3 1.00
                 13.01   0.033498726389998
                 1.962    0.23480080117413
                0.4446     0.8136829578829
 s    1 1.00
                 0.122                   1
 p    1 1.00
                 0.727                   1

15 0
 s    3 1.00
                 13.01   0.033498726389998
                 1.962    0.23480080117413
                0.4446     0.8136829578829
 s    1 1.00
                 0.122                   1
 p    1 1.00
                 0.727                   1

16 0
 s    3 1.00
                 13.01   0.033498726389998
                 1.962    0.23480080117413
                0.4446     0.8136829578829
 s    1 1.00
                 0.122                   1
 p    1 1.00
                 0.727                   1

17 0
 s    3 1.00
                 13.01   0.033498726389998
                 1.962    0.23480080117413
                0.4446     0.8136829578829
 s    1 1.00
                 0.122                   1
 p    1 1.00
                 0.727                   1

18 0
 s    3 1.00
                 13.01   0.033498726389998
                 1.962    0.23480080117413
                0.4446     0.8136829578829
 s    1 1.00
                 0.122                   1
 p    1 1.00
                 0.727                   1

19 0
 s    3 1.00
                 13.01   0.033498726389998
                 1.962    0.23480080117413
                0.4446     0.8136829578829
 s    1 1.00
                 0.122                   1
 p    1 1.00
                 0.727                   1

20 0
 s    3 1.00
                 13.01   0.033498726389998
                 1.962    0.23480080117413
                0.4446     0.8136829578829
 s    1 1.00
                 0.122                   1
 p    1 1.00
                 0.727                   1

[5d]
[7f]
[9g]

[MO]
 Sym= A
 Ene=               0
 Spin= Alpha
 Occup=    1.00000
   1    -3.8932537550168e-16
   2    -1.7840851575733e-16
   3    4.8991051685045e-16
   4    8.5843146263745e-17
   5    -7.3259265403534e-16
   6     0.043954209695954
   7    7.7943671781677e-16
   8    -3.534932792221e-15
   9     0.050584494190491
  10    7.1804801082528e-17
  11    -0.00045299717300371
  12    -0.00049939411429457
  13    -1.5116830782043e-16
  14    1.0308698504888e-16
  15    3.5334863094077e-16
  16    5.5248090133194e-16
  17    -1.2399787893166e-16
  18    -5.4312760540881e-16
  19    -1.8703027147278e-16
  20    -0.024211901160868
  21    -1.9679323325131e-15
  22    3.6367254654037e-16
  23    -0.032309866224382
  24    -1.0235502417432e-16
  25    -0.0028854186015165
  26    -0.0032874457068844
  27    1.7953620924133e-16
  28    -1.3120106087744e-16
  29    -1.7116283856864e-16
  30    -3.7849783385213e-16
  31    2.417973295602e-15
  32    -2.1692251719381e-16
  33    -6.2159632393836e-16
  34    -0.024211901160882
  35    -4.7836915166089e-17
  36    2.3249037996954e-15
  37    -0.032309866224435
  38    1.5274343123947e-16
  39    0.0028854186015134
  40    -0.0032874457068798
  41    2.7372768875912e-16
  42    -4.4882664963203e-17
  43    -1.5021740334359e-16
  44    -5.6160965222159e-16
  45    2.2379377532379e-15
  46    6.492433680863e-16
  47    1.7956420152836e-16
  48     0.043954209695941
  49    -4.288033543261e-16
  50    -8.6508649669198e-17
  51     0.050584494190546
  52    -6.0443924507069e-17
  53    0.00045299717299707
  54    -0.00049939411430009
  55    -2.2556245344767e-16
  56    -1.5004936548389e-16
  57    -2.9203225650691e-16
  58    -3.5949309414677e-16
  59    -4.1087924504582e-15
  60    2.8737990728413e-16
  61    -4.6063876134052e-17
  62    -0.015613149698316
  63    2.6928211790815e-15
  64    -1.262440408889e-15
  65     0.025165269836491
  66    -2.8214521424754e-17
  67     0.004846929782226
  68     0.019066906966568
  69    -4.3678014538421e-16
  70    -1.514232521651e-16
  71    -4.3264638876054e-16
  72    -2.4749103937237e-15
  73    -7.1215431324833e-16
  74    1.4583442052973e-16
  75    9.6639574088822e-16
  76    -0.015613149698301
  77    6.511981900953e-15
  78    2.9337025604776e-15
  79     0.025165269836657
  80    1.3319084136286e-16
  81    -0.0048469297822257
  82     0.019066906966585
  83    2.1599381853106e-16
  84    -1.6705740340101e-16
  85    -8.9035592794833e-17
  86    1.7432806838336e-16
  87    4.2423023152716e-15
  88    -1.7466124381796e-15
  89    8.5190461092387e-16
  90     0.001922584313589
  91    2.3824933665057e-15
  92    -3.0654840620655e-15
  93    -0.0071726966487408
  94    -6.8587533331491e-17
  95    7.4659485085783e-05
  96    -0.030198614982951
  97    4.0563507432287e-16
  98    4.3849652608306e-16
  99    1.7273551450578e-16
 100    4.5574659020124e-16
 101    -5.9874218910434e-15
 102    1.1274589679944e-15
 103    -2.6819975387213e-15
 104      -0.2669837042368
 105    -7.2714531414981e-15
 106    1.0850062361275e-15
 107     -0.21615172849768
 108    -8.3894106862977e-17
 109    -0.019898799262438
 110    -0.0022597622955646
 111    5.5679580353842e-17
 112    1.535921344004e-17
 113    5.4882079511871e-16
 114    1.8471527179537e-15
 115    1.9059491654602e-15
 116    -5.284933984973e-16
 117    1.0864334421805e-15
 118     -0.26698370423674
 119    -8.7413313402432e-15
 120    1.0386625631846e-15
 121     -0.21615172849759
 122    -3.4420674499418e-16
 123     0.019898799262447
 124    -0.0022597622955803
 125    2.8039571545261e-16
 126    4.8694686112338e-16
 127    -5.0866934808933e-16
 128    -9.3883720064699e-16
 129    -2.9093751491125e-15
 130    3.0279069288202e-16
 131    8.7378760467988e-16
 132    0.0019225843137575
 133    -4.647658529058e-16
 134    7.564253453385e-15
 135    -0.0071726966486612
 136    1.7811598265824e-16
 137    -7.4659485090252e-05
 138    -0.030198614982953
 139    -2.768146680883e-16
 140    -3.1370196854595e-16
 141    -2.8617210267627e-16
 142    -6.8951360480712e-16
 143    3.150166326817e-15
 144    -5.8588747670043e-16
 145    -1.3638774459895e-15
 146       0.2916232434764
 147    6.6572652209833e-15
 148    3.8141416145664e-15
 149      0.24206421839065
 150    -1.3129378895719e-16
 151    -0.018769757800096
 152    0.00068516465143912
 153    -3.3932991598554e-16
 154    -2.1063232783356e-16
 155    -1.9969370555878e-16
 156    -1.0861760485334e-15
 157    1.6135486945111e-15
 158    1.8160203083561e-15
 159    -4.5151195904215e-16
 160      0.29162324347632
 161    5.0162987538839e-15
 162    -4.8257784737057e-15
 163      0.24206421839048
 164    -1.057111877796e-16
 165     0.018769757800103
 166    0.00068516465142928
 167    1.4704552397853e-16
 168    -1.18193236845e-16
 169    4.319953755794e-16
 170    -7.2363152112206e-16
 171    -2.5535157603183e-16
 172    1.4331556304139e-16
 173    -0.0011393123457757
 174    -1.0286289822947e-15
 175    -9.9179960399253e-16
 176    -1.0275842925548e-16
 177    1.7977810712232e-16
 178    -0.0011393123457751
 179    -2.9803234176349e-16
 180    -4.4751935758586e-17
 181    -1.2201530058352e-17
 182    4.0642179213969e-17
 183    0.0014537334737018
 184    -1.3702377548925e-16
 185    7.0382905153009e-16
 186    -2.2526983683751e-16
 187    9.4359323386248e-17
 188    -0.00015679289641679
 189    7.0010185083125e-16
 190    7.3799962712511e-16
 191    7.7818445804217e-17
 192    1.9564472726337e-16
 193    0.0014537334737058
 194    7.8578521414439e-16
 195    2.1714480012944e-15
 196    2.2096178003218e-16
 197    -8.8001143629757e-17
 198    -0.00015679289642401
 199    1.2775504773457e-15
 200    -5.9298814966182e-16
 201    1.0920464072959e-16
 202    -3.744708967696e-16
 203     0.011750885291656
 204    -7.4903192132788e-16
 205    -1.3641052261654e-15
 206    -4.2248553263297e-17
 207    -1.8558046291068e-16
 208     0.011750885291656
 Sym= A
 Ene=               1
 Spin= Alpha
 Occup=    1.00000
   1    -3.3944451056995e-16
   2    -6.6204706473686e-16
   3    2.3081504241579e-15
   4    6.6494726168816e-17
   5    5.0791672336556e-16
   6     0.013082435224946
   7    1.4308911772293e-15
   8    1.2118244389518e-15
   9     0.015484001854221
  10    -4.0902709708644e-16
  11    -0.00097130272207343
  12    0.0025343146577494
  13    -1.4958374178251e-17
  14    -3.4699534940382e-17
  15    2.0638837340296e-16
  16    5.6848262351236e-16
  17    -7.7259794010733e-16
  18    2.0139714926302e-17
  19    -1.5977001251868e-17
  20     0.010171674959023
  21    1.5982889263326e-15
  22    1.0024908992354e-15
  23      0.01133051224905
  24    1.9907656736354e-16
  25    -0.00097594707629557
  26    -0.00091082411924389
  27    2.1392924070531e-16
  28    -6.1505217623538e-17
  29    -2.5799808204346e-16
  30    -3.7358673398553e-16
  31    1.6034798150488e-15
  32    1.1360803280357e-16
  33    -1.1333572313644e-16
  34    -0.010171674959003
  35    2.0125914415808e-15
  36    -1.2419406129174e-15
  37    -0.011330512249018
  38    -1.2789247197565e-16
  39    -0.00097594707629747
  40    0.00091082411924446
  41    -2.2269002706205e-16
  42    2.4490885488945e-18
  43    2.7165645691477e-16
  44    3.3833200385101e-16
  45    -2.6130799016622e-15
  46    9.9853337839678e-17
  47    1.7135476800882e-16
  48    -0.013082435224975
  49    9.7397821329296e-16
  50    -1.8301760863144e-15
  51    -0.015484001854286
  52    1.0047273275326e-16
  53    -0.00097130272207145
  54    -0.0025343146577469
  55    5.6323361070968e-19
  56    8.9819007051816e-17
  57    -2.771284447775e-16
  58    -6.3773844676862e-16
  59    -5.4087679000068e-16
  60    -5.9473730802349e-17
  61    6.8046344051436e-16
  62     0.024582182994823
  63    -1.2055141521939e-15
  64    7.0692158928876e-16
  65     0.014208085393103
  66    3.3013333760484e-16
  67    0.00048764320797442
  68    -0.0094351892251357
  69    9.539071163751e-17
  70    2.9599070629709e-17
  71    6.3421220349627e-16
  72    1.2316598235025e-15
  73    2.1925767271348e-16
  74    -5.8864024453953e-17
  75    -2.2879046689271e-15
  76    -0.024582182994814
  77    -1.3070671560477e-15
  78    -2.0162524039025e-15
  79    -0.014208085393085
  80    -9.8702516538929e-17
  81    0.00048764320797289
  82    0.0094351892251337
  83    2.0704320194008e-16
  84    1.8781856039575e-16
  85    -1.9355524066173e-16
  86    -4.545909618567e-16
  87    -1.1670752382604e-15
  88    8.4813587153248e-16
  89    -8.2713229053146e-16
  90     -0.31643109381069
  91    -2.3226741765695e-16
  92    8.5971038782312e-16
  93     -0.25098140676704
  94    2.7521636012379e-17
  95    -0.015723358182681
  96    -0.00096543201231107
  97    -4.1866214265867e-16
  98    -2.090713023213e-16
  99    -1.8025266622887e-16
 100    -7.3494068882354e-16
 101    5.6724877555703e-16
 102    -3.0478329167638e-15
 103    2.352042925127e-15
 104     -0.16984924522135
 105    5.2891341646076e-16
 106    7.7556954947723e-16
 107      -0.1278655800599
 108    9.1466776221473e-17
 109     0.019861388913872
 110      0.01669399799129
 111    -4.8804056631052e-16
 112    -6.8644530518473e-17
 113    -6.6263330845059e-16
 114    -2.4583327946193e-15
 115    -3.817912714434e-15
 116    2.2482136724573e-15
 117    -5.9519998440408e-16
 118      0.16984924522148
 119    2.5144039079635e-15
 120    9.1249569494625e-16
 121      0.12786558006004
 122    5.7922973081742e-17
 123     0.019861388913875
 124    -0.016693997991289
 125    -1.2175267750027e-16
 126    -9.1632513532368e-17
 127    6.9575768942424e-16
 128    2.2628691694347e-15
 129    2.5361941491778e-15
 130    -3.1468116049827e-16
 131    -9.3782992297971e-16
 132      0.31643109381067
 133    -9.7891209919888e-16
 134    -3.4417977811844e-16
 135      0.25098140676698
 136    -6.400836038972e-17
 137    -0.015723358182675
 138    0.00096543201232776
 139    1.9184304765608e-16
 140    2.5796710843555e-16
 141    3.6202631359699e-16
 142    7.8626540079585e-16
 143    3.4773606202967e-16
 144    1.0007486456456e-16
 145    3.0592399371098e-15
 146      0.15804606326296
 147    2.1042060338592e-16
 148    5.2556358433321e-16
 149      0.12180878970276
 150    -1.0485607355015e-16
 151     0.019667081141745
 152      0.01777797782578
 153    1.3477889627465e-17
 154    1.4139779719606e-16
 155    2.8181136952615e-16
 156    6.993624089813e-16
 157    1.6819980299934e-15
 158    4.807647764814e-16
 159    9.9882409093802e-16
 160     -0.15804606326311
 161    -1.2113654199162e-16
 162    1.5183645558502e-15
 163     -0.12180878970285
 164    7.7584653393162e-18
 165     0.019667081141735
 166    -0.017777977825785
 167    1.0331620083303e-16
 168    -1.3084124591897e-16
 169    8.2809991048052e-17
 170    1.978671083582e-16
 171    1.2862583064516e-17
 172    1.7597610338741e-17
 173    0.00041740078417806
 174    -3.4824798607925e-16
 175    -1.0614921213045e-16
 176    -6.0276342459214e-17
 177    9.1684670876053e-17
 178    -0.00041740078417755
 179    3.4709972534758e-16
 180    -2.6759327429037e-16
 181    -6.7222411672733e-17
 182    -2.902814190082e-17
 183    -0.00040071426483391
 184    8.6417754019117e-16
 185     3.66296810317e-17
 186    -1.121150158637e-16
 187    -1.0627163638244e-17
 188     0.011859159112504
 189    -1.1345881287064e-16
 190    5.5365167232418e-16
 191    -5.6695124620507e-18
 192    -1.1943492833804e-16
 193    0.0004007142648346
 194    -9.8414756366969e-16
 195    -3.8973626606345e-16
 196    1.6355327241377e-16
 197    -1.7731326638452e-16
 198    -0.011859159112502
 199    -1.882226242805e-15
 200    -1.009961965855e-15
 201    2.2785603076204e-16
 202    -5.8356305626895e-17
 203    0.0063140141594096
 204    -1.3379253142315e-16
 205    2.1783601084118e-16
 206    1.0621952082116e-17
 207    2.890421663524e-17
 208    -0.0063140141594181
 Sym= A
 Ene=               2
 Spin= Alpha
 Occup=    1.00000
   1    -0.0010824338904049
   2    -0.016850686513837
   3    -0.011741894079951
   4    -0.0094844114127149
   5     0.015897416903561
   6    -3.5600592851464e-09
   7    0.0045067337265935
   8     0.019235514165676
   9    -5.9879910652467e-10
  10    -0.000450925220037
  11    3.8379588953402e-10
  12    -3.5832471521854e-10
  13    -0.0030360747141835
  14    -0.0002170701668564
  15    -0.0020593524096584
  16    0.0003630628701572
  17      0.00015142551917
  18    -0.0039269639929289
  19    -0.0086068690167063
  20    1.4423096107021e-09
  21    -0.00034025754447154
  22    -0.0044816939068687
  23    8.3591221148591e-10
  24    0.0010335669120232
  25    3.5690214464236e-10
  26    3.6743816017478e-10
  27    0.0014335172962128
  28    4.4352752867903e-06
  29    -0.0020593524285577
  30    0.00036306291891014
  31    0.00015142570665983
  32    0.0039269620265885
  33    -0.0086068677639482
  34    1.4216142549591e-09
  35    0.00034025750937872
  36    -0.0044816937736595
  37    7.940858249367e-10
  38    0.0010335669198866
  39    -1.8917335603987e-10
  40    9.9439074177516e-11
  41    0.0014335165671196
  42    -4.4356820112867e-06
  43    -0.0010824338652399
  44    -0.016850686570505
  45    -0.011741894033993
  46    0.0094844109468255
  47      0.01589741891213
  48    -1.603933963578e-09
  49    -0.0045067338186678
  50     0.019235514148439
  51    -9.5126506650713e-10
  52    -0.00045092520111452
  53      5.1908761341e-11
  54    2.4583250205222e-10
  55    -0.0030360747919719
  56    0.00021707109053232
  57     0.012540836092256
  58     0.081844702905731
  59     0.086289891108402
  60     0.010239998401858
  61    -0.099972556891957
  62    -1.9933162774676e-09
  63     0.009863604225633
  64    -0.059427289185748
  65    -1.417189237246e-09
  66    0.00094080314761765
  67    -5.1939543216341e-10
  68    3.1548438296258e-10
  69    0.0063775636353967
  70    -0.0096835281286246
  71     0.012540836032283
  72     0.081844702885214
  73     0.086289890305689
  74    -0.010239996175416
  75    -0.099972557286639