[Molden Format]
made by pyscf v[2.0.1]
[Atoms] (AU)
C   1   6    -2.73653129824391    10.86023714061417     0.00000000000000
C   2   6    -1.31205574554677    13.15092535428944     0.00000000000000
C   3   6     1.31205574554677    13.15092535428944     0.00000000000000
C   4   6     2.73653129824391    10.86023714061417     0.00000000000000
C   5   6     1.34896209675952     8.66726666484015     0.00000000000000
C   6   6    -1.34896209675952     8.66726666484015     0.00000000000000
C   7   6    -2.81790290516768     3.61294848029470     0.00000000000000
C   8   6    -1.34119532238756     5.80962281927286     0.00000000000000
C   9   6     1.34119532238756     5.80962281927286     0.00000000000000
C   10   6     2.81790290516768     3.61294848029470     0.00000000000000
C   11   6     1.34542830890659     1.42912427896357     0.00000000000000
C   12   6    -1.34542830890659     1.42912427896357     0.00000000000000
H   13   1    -2.31856167401261    14.95336502916084     0.00000000000000
H   14   1     2.31856167401261    14.95336502916084     0.00000000000000
H   15   1     4.79939413034162    10.89946785496014     0.00000000000000
H   16   1     4.87974528515813     3.61326973373587     0.00000000000000
H   17   1    -4.79939413034162    10.89946785496014     0.00000000000000
H   18   1    -4.87974528515813     3.61326973373587     0.00000000000000
H   19   1     2.26113289708708    -0.29271857669513     0.00000000000000
H   20   1    -2.26113289708708    -0.29271857669513     0.00000000000000
[GTO]
1 0
 s    8 1.00
                  6665  0.00069158396281299
                  1000  0.0053257961529341
                   228   0.027060721042034
                 64.71    0.10165684614077
                 21.06     0.2745748236174
                 7.495    0.44829431892377
                 2.797    0.28490261071525
                0.5215   0.015194859206082
 s    8 1.00
                  6665  -0.00029326965268655
                  1000  -0.0023180354739745
                   228  -0.011499786038565
                 64.71  -0.046826727009787
                 21.06   -0.12846616875047
                 7.495   -0.30126627246289
                 2.797   -0.25563070233011
                0.5215      1.093793361012
 s    1 1.00
                0.1596                   1
 p    3 1.00
                 9.439   0.056979251590039
                 2.002    0.31320721150073
                0.5456    0.76037674173753
 p    1 1.00
                0.1517                   1
 d    1 1.00
                  0.55                   1

2 0
 s    8 1.00
                  6665  0.00069158396281299
                  1000  0.0053257961529341
                   228   0.027060721042034
                 64.71    0.10165684614077
                 21.06     0.2745748236174
                 7.495    0.44829431892377
                 2.797    0.28490261071525
                0.5215   0.015194859206082
 s    8 1.00
                  6665  -0.00029326965268655
                  1000  -0.0023180354739745
                   228  -0.011499786038565
                 64.71  -0.046826727009787
                 21.06   -0.12846616875047
                 7.495   -0.30126627246289
                 2.797   -0.25563070233011
                0.5215      1.093793361012
 s    1 1.00
                0.1596                   1
 p    3 1.00
                 9.439   0.056979251590039
                 2.002    0.31320721150073
                0.5456    0.76037674173753
 p    1 1.00
                0.1517                   1
 d    1 1.00
                  0.55                   1

3 0
 s    8 1.00
                  6665  0.00069158396281299
                  1000  0.0053257961529341
                   228   0.027060721042034
                 64.71    0.10165684614077
                 21.06     0.2745748236174
                 7.495    0.44829431892377
                 2.797    0.28490261071525
                0.5215   0.015194859206082
 s    8 1.00
                  6665  -0.00029326965268655
                  1000  -0.0023180354739745
                   228  -0.011499786038565
                 64.71  -0.046826727009787
                 21.06   -0.12846616875047
                 7.495   -0.30126627246289
                 2.797   -0.25563070233011
                0.5215      1.093793361012
 s    1 1.00
                0.1596                   1
 p    3 1.00
                 9.439   0.056979251590039
                 2.002    0.31320721150073
                0.5456    0.76037674173753
 p    1 1.00
                0.1517                   1
 d    1 1.00
                  0.55                   1

4 0
 s    8 1.00
                  6665  0.00069158396281299
                  1000  0.0053257961529341
                   228   0.027060721042034
                 64.71    0.10165684614077
                 21.06     0.2745748236174
                 7.495    0.44829431892377
                 2.797    0.28490261071525
                0.5215   0.015194859206082
 s    8 1.00
                  6665  -0.00029326965268655
                  1000  -0.0023180354739745
                   228  -0.011499786038565
                 64.71  -0.046826727009787
                 21.06   -0.12846616875047
                 7.495   -0.30126627246289
                 2.797   -0.25563070233011
                0.5215      1.093793361012
 s    1 1.00
                0.1596                   1
 p    3 1.00
                 9.439   0.056979251590039
                 2.002    0.31320721150073
                0.5456    0.76037674173753
 p    1 1.00
                0.1517                   1
 d    1 1.00
                  0.55                   1

5 0
 s    8 1.00
                  6665  0.00069158396281299
                  1000  0.0053257961529341
                   228   0.027060721042034
                 64.71    0.10165684614077
                 21.06     0.2745748236174
                 7.495    0.44829431892377
                 2.797    0.28490261071525
                0.5215   0.015194859206082
 s    8 1.00
                  6665  -0.00029326965268655
                  1000  -0.0023180354739745
                   228  -0.011499786038565
                 64.71  -0.046826727009787
                 21.06   -0.12846616875047
                 7.495   -0.30126627246289
                 2.797   -0.25563070233011
                0.5215      1.093793361012
 s    1 1.00
                0.1596                   1
 p    3 1.00
                 9.439   0.056979251590039
                 2.002    0.31320721150073
                0.5456    0.76037674173753
 p    1 1.00
                0.1517                   1
 d    1 1.00
                  0.55                   1

6 0
 s    8 1.00
                  6665  0.00069158396281299
                  1000  0.0053257961529341
                   228   0.027060721042034
                 64.71    0.10165684614077
                 21.06     0.2745748236174
                 7.495    0.44829431892377
                 2.797    0.28490261071525
                0.5215   0.015194859206082
 s    8 1.00
                  6665  -0.00029326965268655
                  1000  -0.0023180354739745
                   228  -0.011499786038565
                 64.71  -0.046826727009787
                 21.06   -0.12846616875047
                 7.495   -0.30126627246289
                 2.797   -0.25563070233011
                0.5215      1.093793361012
 s    1 1.00
                0.1596                   1
 p    3 1.00
                 9.439   0.056979251590039
                 2.002    0.31320721150073
                0.5456    0.76037674173753
 p    1 1.00
                0.1517                   1
 d    1 1.00
                  0.55                   1

7 0
 s    8 1.00
                  6665  0.00069158396281299
                  1000  0.0053257961529341
                   228   0.027060721042034
                 64.71    0.10165684614077
                 21.06     0.2745748236174
                 7.495    0.44829431892377
                 2.797    0.28490261071525
                0.5215   0.015194859206082
 s    8 1.00
                  6665  -0.00029326965268655
                  1000  -0.0023180354739745
                   228  -0.011499786038565
                 64.71  -0.046826727009787
                 21.06   -0.12846616875047
                 7.495   -0.30126627246289
                 2.797   -0.25563070233011
                0.5215      1.093793361012
 s    1 1.00
                0.1596                   1
 p    3 1.00
                 9.439   0.056979251590039
                 2.002    0.31320721150073
                0.5456    0.76037674173753
 p    1 1.00
                0.1517                   1
 d    1 1.00
                  0.55                   1

8 0
 s    8 1.00
                  6665  0.00069158396281299
                  1000  0.0053257961529341
                   228   0.027060721042034
                 64.71    0.10165684614077
                 21.06     0.2745748236174
                 7.495    0.44829431892377
                 2.797    0.28490261071525
                0.5215   0.015194859206082
 s    8 1.00
                  6665  -0.00029326965268655
                  1000  -0.0023180354739745
                   228  -0.011499786038565
                 64.71  -0.046826727009787
                 21.06   -0.12846616875047
                 7.495   -0.30126627246289
                 2.797   -0.25563070233011
                0.5215      1.093793361012
 s    1 1.00
                0.1596                   1
 p    3 1.00
                 9.439   0.056979251590039
                 2.002    0.31320721150073
                0.5456    0.76037674173753
 p    1 1.00
                0.1517                   1
 d    1 1.00
                  0.55                   1

9 0
 s    8 1.00
                  6665  0.00069158396281299
                  1000  0.0053257961529341
                   228   0.027060721042034
                 64.71    0.10165684614077
                 21.06     0.2745748236174
                 7.495    0.44829431892377
                 2.797    0.28490261071525
                0.5215   0.015194859206082
 s    8 1.00
                  6665  -0.00029326965268655
                  1000  -0.0023180354739745
                   228  -0.011499786038565
                 64.71  -0.046826727009787
                 21.06   -0.12846616875047
                 7.495   -0.30126627246289
                 2.797   -0.25563070233011
                0.5215      1.093793361012
 s    1 1.00
                0.1596                   1
 p    3 1.00
                 9.439   0.056979251590039
                 2.002    0.31320721150073
                0.5456    0.76037674173753
 p    1 1.00
                0.1517                   1
 d    1 1.00
                  0.55                   1

10 0
 s    8 1.00
                  6665  0.00069158396281299
                  1000  0.0053257961529341
                   228   0.027060721042034
                 64.71    0.10165684614077
                 21.06     0.2745748236174
                 7.495    0.44829431892377
                 2.797    0.28490261071525
                0.5215   0.015194859206082
 s    8 1.00
                  6665  -0.00029326965268655
                  1000  -0.0023180354739745
                   228  -0.011499786038565
                 64.71  -0.046826727009787
                 21.06   -0.12846616875047
                 7.495   -0.30126627246289
                 2.797   -0.25563070233011
                0.5215      1.093793361012
 s    1 1.00
                0.1596                   1
 p    3 1.00
                 9.439   0.056979251590039
                 2.002    0.31320721150073
                0.5456    0.76037674173753
 p    1 1.00
                0.1517                   1
 d    1 1.00
                  0.55                   1

11 0
 s    8 1.00
                  6665  0.00069158396281299
                  1000  0.0053257961529341
                   228   0.027060721042034
                 64.71    0.10165684614077
                 21.06     0.2745748236174
                 7.495    0.44829431892377
                 2.797    0.28490261071525
                0.5215   0.015194859206082
 s    8 1.00
                  6665  -0.00029326965268655
                  1000  -0.0023180354739745
                   228  -0.011499786038565
                 64.71  -0.046826727009787
                 21.06   -0.12846616875047
                 7.495   -0.30126627246289
                 2.797   -0.25563070233011
                0.5215      1.093793361012
 s    1 1.00
                0.1596                   1
 p    3 1.00
                 9.439   0.056979251590039
                 2.002    0.31320721150073
                0.5456    0.76037674173753
 p    1 1.00
                0.1517                   1
 d    1 1.00
                  0.55                   1

12 0
 s    8 1.00
                  6665  0.00069158396281299
                  1000  0.0053257961529341
                   228   0.027060721042034
                 64.71    0.10165684614077
                 21.06     0.2745748236174
                 7.495    0.44829431892377
                 2.797    0.28490261071525
                0.5215   0.015194859206082
 s    8 1.00
                  6665  -0.00029326965268655
                  1000  -0.0023180354739745
                   228  -0.011499786038565
                 64.71  -0.046826727009787
                 21.06   -0.12846616875047
                 7.495   -0.30126627246289
                 2.797   -0.25563070233011
                0.5215      1.093793361012
 s    1 1.00
                0.1596                   1
 p    3 1.00
                 9.439   0.056979251590039
                 2.002    0.31320721150073
                0.5456    0.76037674173753
 p    1 1.00
                0.1517                   1
 d    1 1.00
                  0.55                   1

13 0
 s    3 1.00
                 13.01   0.033498726389998
                 1.962    0.23480080117413
                0.4446     0.8136829578829
 s    1 1.00
                 0.122                   1
 p    1 1.00
                 0.727                   1

14 0
 s    3 1.00
                 13.01   0.033498726389998
                 1.962    0.23480080117413
                0.4446     0.8136829578829
 s    1 1.00
                 0.122                   1
 p    1 1.00
                 0.727                   1

15 0
 s    3 1.00
                 13.01   0.033498726389998
                 1.962    0.23480080117413
                0.4446     0.8136829578829
 s    1 1.00
                 0.122                   1
 p    1 1.00
                 0.727                   1

16 0
 s    3 1.00
                 13.01   0.033498726389998
                 1.962    0.23480080117413
                0.4446     0.8136829578829
 s    1 1.00
                 0.122                   1
 p    1 1.00
                 0.727                   1

17 0
 s    3 1.00
                 13.01   0.033498726389998
                 1.962    0.23480080117413
                0.4446     0.8136829578829
 s    1 1.00
                 0.122                   1
 p    1 1.00
                 0.727                   1

18 0
 s    3 1.00
                 13.01   0.033498726389998
                 1.962    0.23480080117413
                0.4446     0.8136829578829
 s    1 1.00
                 0.122                   1
 p    1 1.00
                 0.727                   1

19 0
 s    3 1.00
                 13.01   0.033498726389998
                 1.962    0.23480080117413
                0.4446     0.8136829578829
 s    1 1.00
                 0.122                   1
 p    1 1.00
                 0.727                   1

20 0
 s    3 1.00
                 13.01   0.033498726389998
                 1.962    0.23480080117413
                0.4446     0.8136829578829
 s    1 1.00
                 0.122                   1
 p    1 1.00
                 0.727                   1

[5d]
[7f]
[9g]

[MO]
 Sym= A
 Ene=               0
 Spin= Alpha
 Occup=    1.00000
   1    -0.0010905675450288
   2    -0.0027714035592097
   3    -0.0045591399847871
   4       0.8758395273453
   5    0.0026787332349939
   6    1.9583577814311e-17
   7      0.22853027895671
   8    -0.0012961281553248
   9    1.5483297642695e-16
  10    -0.003885094576027
  11    -1.1053047500713e-16
  12    -9.8166937053851e-17
  13      0.02431362251312
  14    0.0010278257916888
  15       0.0059674561871
  16     0.044011623968189
  17     0.045569246852536
  18    -0.023154925716032
  19    -0.078661508986902
  20    2.9710925715309e-16
  21     0.022429140938533
  22    -0.069701566236054
  23    3.9521343737416e-16
  24    -0.046099545832907
  25    -2.6969745634107e-16
  26    5.6395948860396e-16
  27     -0.11377655358857
  28     0.037409051242844
  29    0.00056203396297518
  30    -0.0004773866012317
  31    0.0090980295163881
  32    -0.0018688958568276
  33    0.0021112763417687
  34    4.0516518642006e-16
  35    -0.034032944165319
  36    -0.018795365468111
  37    -7.1790420396949e-17
  38    -0.0023649779622413
  39    -2.124957320561e-16
  40    -6.898968031647e-17
  41    0.0080746738889832
  42    0.0055908123138389
  43    0.00045919169366001
  44    -0.0011557550468605
  45    9.7300900461909e-05
  46    0.0039750016896494
  47    0.0002042226895576
  48    5.0710034533239e-16
  49    -0.011858929504336
  50    -0.00033223922958481
  51    -2.3078112585003e-17
  52     0.001131138803003
  53    4.3502109255097e-16
  54    1.665348359227e-16
  55    -0.0044249791983351
  56    -3.8315360684871e-05
  57    0.0004282741155923
  58    -0.00021417636762699
  59     0.010403052987125
  60    -0.0024513855401103
  61    -0.0026459344277398
  62    -5.6573409942966e-16
  63    -0.036983270442118
  64     0.017962423865693
  65    -3.7362875132116e-16
  66    -0.0036502620323785
  67    3.4209813186581e-16
  68    -2.1191477929241e-16
  69    0.0087301765271714
  70    -0.0043409330565015
  71    0.0091064867582732
  72     0.053200231531211
  73     0.050260153042552
  74    -0.024606568980737
  75     0.088196527493342
  76    -2.7251617488686e-16
  77     0.027317483077497
  78     0.068651747495954
  79    -8.8638341979913e-17
  80    -0.048577251536936
  81    -1.4997645313038e-16
  82    1.4090048821765e-16
  83     -0.12667717899132
  84    -0.035459803605794
  85    0.00056899690282009
  86    0.0013869477514186
  87    0.0010966913160593
  88    0.0012967002252522
  89    0.0011037416571818
  90    -3.4398123447175e-16
  91    0.00038039281306421
  92    0.0011828292549899
  93    -2.125117074055e-18
  94    -0.00023677125876713
  95    -2.9320213941155e-16
  96    -1.3740419735619e-16
  97    0.00057872284503918
  98    0.00099100502190379
  99    -0.0017842262214901
 100    -0.0053146623372119
 101    0.0017266106624398
 102    -0.0010272563532311
 103    -0.0089306576205828
 104    -1.3275425572449e-16
 105    -0.0034773123772548
 106    0.0098138517220572
 107    -2.033090931838e-16
 108    0.0027883234025882
 109    -1.9796978185575e-16
 110    -1.1560658569516e-16
 111    0.0065325082395539
 112    -0.0056391092983404
 113    0.00065190928695439
 114    0.0010883472139297
 115    0.0006811477530395
 116    0.0011636017221921
 117    0.00049796893802201
 118    2.2211400714526e-17
 119    0.00080365262902081
 120     0.001066438041043
 121    -4.1185975879064e-16
 122    0.0015696642105668
 123    6.6357175404404e-17
 124    1.3069477004489e-16
 125    -0.0010088767094564
 126    0.0026491371877618
 127    3.2911892016206e-05
 128    0.00021912883825764
 129    0.00062785899030101
 130    -0.00018101829446507
 131    0.00045877739708268
 132    -1.606349492567e-16
 133    -0.00047620071570175
 134    0.00086774050331994
 135    -6.6138837304173e-16
 136    -0.00032865586510947
 137    -9.5480890607257e-17
 138    -3.4887547842193e-16
 139    -0.00042165056973846
 140    -0.00022388923286152
 141    -4.2096525420198e-05
 142    -4.1368432673609e-05
 143    0.00025745935633528
 144    -3.9714186000123e-05
 145    -1.3106955095913e-05
 146    1.1654734638198e-16
 147    -0.00036725517128187
 148    0.00050212825773019
 149    -7.1952658785536e-16
 150    -7.5173506922738e-05
 151    2.1023517198826e-16
 152    4.3841418573143e-16
 153    -8.8204963558034e-05
 154    -0.00015215445627636
 155    5.1575110460719e-05
 156    0.00021272993897534
 157    0.0005814027609726
 158    -0.00016383774271614
 159    0.00023240091564986
 160    -4.1588980341672e-17
 161    0.00021809042276474
 162    0.00097603876788739
 163    -4.7468185753764e-16
 164    -0.00018234396355835
 165    -3.3982030399538e-16
 166    -1.0073177747658e-17
 167    -0.00028664534304331
 168    -7.3127316196814e-05
 169    0.00034382815509172
 170    0.0080889099419598
 171    -0.010535715504194
 172    -0.0045626802774091
 173    6.0941911115135e-16
 174    0.0022213706573016
 175    0.0021473750109365
 176    -0.00014443151409397
 177    0.00035199913898005
 178    -5.6761795335218e-16
 179    0.0016102807306228
 180    0.00019964738385644
 181    -0.00075531919535284
 182    -6.7825652501139e-05
 183    1.4582654562819e-16
 184    7.3567136731914e-06
 185    0.00037968070436773
 186    8.6837998717578e-06
 187    -2.5278124597563e-05
 188    -5.0132805394466e-17
 189     -0.19797895267515
 190    -0.075155013343764
 191     -0.24339062388044
 192    0.0068791794527456
 193    4.8397750956953e-17
 194    -0.00038993019107127
 195    0.0013918591272093
 196    3.8410617224309e-05
 197    0.00025619331724027
 198    5.0901550000631e-16
 199    3.5590094169623e-05
 200    0.00019397257730734
 201    3.0847115330239e-05
 202    -2.507107112935e-05
 203    -3.2944104475921e-16
 204    8.7111121543292e-05
 205    0.00025167853394598
 206    -4.7940746435309e-05
 207    1.3629364197333e-07
 208    3.0716765143134e-16
 Sym= A
 Ene=               1
 Spin= Alpha
 Occup=    1.00000
   1    0.0021411284819878
   2    0.0038788172793594
   3    0.0012514164160527
   4    0.0026787332349938
   5      0.89031586581063
   6    -3.7522015140184e-16
   7    -0.00026456007548228
   8       0.2350439167207
   9    -6.1437865889598e-17
  10    -0.00035644662137289
  11    -2.4278862322823e-16
  12    -3.0217865065503e-16
  13    -0.0020665171635787
  14    -0.027621956351667
  15      0.01062590024054
  16      0.07517028477481
  17     0.081794500731217
  18    -0.082244494203362
  19     -0.10334892070493
  20    1.475335946904e-16
  21      -0.0726715566541
  22    -0.051932431573553
  23    -1.4403153370794e-17
  24    -0.076301030926298
  25    -4.8710966923339e-16
  26    4.5205764483018e-16
  27    -0.011314164963814
  28      0.14769315069505
  29    -0.00044097796682054
  30    -0.0007558698513779
  31    0.0094811390810648
  32    0.0020702092504271
  33    -0.0051484212197617
  34    -2.9503664004718e-16
  35    -0.028771512614978
  36     -0.00845187798934
  37    -2.143379983089e-16
  38    -0.00028304827706653
  39    3.0422795868994e-16
  40    -7.5737565033546e-18
  41    0.0035056663045487
  42     0.016961717669504
  43    -2.0566111769485e-05
  44    3.1402328469596e-05
  45    -0.00024936771321341
  46    -0.00020422268955832
  47    0.0039979356278739
  48    -7.7291936735654e-17
  49    7.8845122635931e-05
  50    0.0074554562483491
  51    -2.2915869342486e-16
  52    -0.00013576936074048
  53    -9.0700655421349e-17
  54    -1.9368557137132e-16
  55    -6.3776320575603e-05
  56    0.0001314529527393
  57    0.00081352847335118
  58    0.0013724490978799
  59     -0.01033550179923
  60    -0.0020967555051934
  61    -0.0048721158602125
  62    9.2118890478096e-17
  63     0.030258230467666
  64    -0.0081866744243805
  65    2.7147307051968e-16
  66    0.0010860457427359
  67    -2.1821163025194e-16
  68    -8.408725854776e-17
  69    -0.0028516627493813
  70     0.015827452969276
  71    -0.015973331470721
  72    -0.089214157264225
  73    -0.087474529632044
  74     0.093501472795923
  75      -0.1100649333223
  76    6.5256820730106e-16
  77     0.072911369163345
  78      -0.0415130658222
  79    4.6320785703267e-16
  80     0.077807138395062
  81    2.1060866603219e-16
  82    7.400837145256e-17
  83    0.0019877021986428
  84      0.15289785514525
  85    -0.0012089883538089
  86    -0.0026646929513915
  87    -0.0010830662991181
  88    -0.0012479146789609
  89    -0.0021032511507856
  90    1.5652520732715e-16
  91    -0.0016398857297563
  92    0.0020945773779954
  93    1.6774209200443e-16
  94    -0.0003176346013609
  95    -3.3287425894459e-17
  96    1.1740112360106e-16
  97    -0.00040230148343755
  98    -0.0011820894554375
  99    0.00067565659947164
 100     0.003163451835462
 101    -0.0054901994036065
 102     0.002294756526096
 103    0.0060604350006735
 104    6.0678865232444e-16
 105    0.0058354529562749
 106    -0.027122002977698
 107    3.6449475887971e-16
 108    -0.0025537572261353
 109    1.0267069476231e-16
 110    1.5251932121668e-16
 111    -0.0017244896794221
 112    0.0095284479162801
 113    -0.0011293350767387
 114    -0.0014475790264021
 115    -0.00031531811828882
 116    -0.00078818646585995
 117    0.00016715045787219
 118    4.0025768130201e-16
 119    -0.00062628669389183
 120    -0.0018380192559866
 121    7.5866847047769e-17
 122    -0.0033792677867696
 123    -3.842744384286e-17
 124    3.3666423880954e-16
 125    -0.0001186032662513
 126    -0.0031896804275844
 127    -0.00010054658207387
 128    -0.00043544197317261
 129    -0.00069135278600284
 130    0.00047675933242493
 131    -0.00054998434609468
 132    -4.5824262733329e-16
 133    0.00037152844897503
 134    -0.00095444285195647
 135    -5.8467594469327e-16
 136    0.00050249276044769
 137    -3.1690917778987e-16
 138    1.8096009789825e-16
 139    0.00020928717644721
 140    0.00038569065396005
 141    -3.3945059890631e-05
 142    -0.0001354351392826
 143    -0.00034014085399969
 144    9.5392386276187e-05
 145    -9.1010819930422e-05
 146    -2.8147624841574e-16
 147    0.0001639657957643
 148    -0.00043474023185345
 149    -5.8028929250361e-16
 150    3.8254621316003e-05
 151    -9.9342533851181e-17
 152    2.6903814262858e-16
 153    0.00013511962570095
 154    0.00010760030580715
 155    4.4864172183199e-05
 156    -5.1743029489355e-05
 157    -0.00034878836973028
 158    -4.5581481748899e-05
 159    -0.00031048930240549
 160    7.4308951875629e-17
 161    -0.00012628168429116
 162    -0.0011655979313666
 163    -2.3345194220438e-16
 164    0.00031478798684278
 165    -1.0666437794251e-16
 166    1.9097520276105e-16
 167    0.00057505906045913
 168    0.00012443005987415
 169    0.0037551936312489
 170     0.029097620433207
 171    -0.0011374757806359
 172    -0.0086671174564609
 173    -4.0377921825862e-17
 174    0.00056611846942535
 175    0.0044687832711872
 176    -0.00066631826362374
 177    0.0020387412268154
 178    -4.2204300068129e-16
 179    -8.1404779958551e-05
 180    -0.00029435678786677
 181    7.1969993629015e-05
 182    0.00027540343271687
 183    -3.7133204259883e-16
 184    0.00017206481954082
 185    -0.0003479689468402
 186    -5.2842676312965e-06
 187    1.7764200114498e-05
 188    -1.7838034838306e-16
 189    0.0036434757592224
 190    0.0012338468471713
 191    0.0065965832548748
 192     0.087469674302662
 193    2.0511579949661e-16
 194    -0.00089440254383178
 195     0.001131269358171
 196    -0.00015189377210969
 197    -0.00038554771399395
 198    4.1190796261222e-16
 199    -5.5114032116348e-05
 200    -0.00014177023436448
 201    4.2401783355663e-06
 202    -1.4845765310952e-05
 203    -2.2551306893963e-16
 204    9.8416973506716e-05
 205    -0.00012137894776944
 206    3.0396219244968e-05
 207    0.00012641256144253
 208    1.0736253132701e-16
 Sym= A
 Ene=               2
 Spin= Alpha
 Occup=    1.00000
   1    1.1448499761269e-16
   2    3.4778992119473e-16
   3    -6.9609232619193e-17
   4    4.0562256460153e-18
   5    -4.4193881266593e-16
   6      0.94246042770342
   7    -1.1527728942341e-16
   8    -1.006806902431e-16
   9         0.24777892154
  10    -4.5271010214369e-16
  11    -0.0071234591603935
  12    0.0029887419009195
  13    -2.9720244344169e-16
  14    -9.7982078667497e-17
  15    3.0389902273327e-16
  16    -1.1475097779912e-16
  17    5.7184079893994e-18
  18    -6.4072314816046e-17
  19    1.7686752551996e-16
  20     0.029401887195055
  21    -3.0932971071559e-16
  22    5.7445415132951e-17
  23     0.073036966830763
  24    -4.0944319991722e-16
  25    -0.056689732770644
  26    -0.091474459081376
  27    1.7512325795883e-16
  28    4.416184334081e-16
  29    3.804800703294e-16
  30    2.7093701671975e-16
  31    1.3341927363436e-16
  32    -9.4053128571168e-17
  33    1.0889250123752e-17
  34    9.109580734602e-05
  35    -1.0376245701848e-16
  36    -3.7034356469247e-16
  37    0.0033323664603339
  38    3.4373750280536e-17
  39    -0.0012218680744331
  40     0.003816244967067
  41    2.6472218831913e-16
  42    -4.5537529322795e-16
  43    2.626889633616e-17
  44    -1.3330808405666e-16
  45    -4.0321340050217e-16
  46    4.5683443577321e-16
  47    3.6077206615459e-16
  48    0.00067909804460367
  49    -1.9244245946407e-16
  50    -1.0957683940547e-16
  51    -0.00058765066531785
  52    3.5908260188951e-16
  53    0.0012846899765972
  54    -0.00011710270063017
  55    8.6600342874949e-18
  56    4.5566588606911e-16
  57    3.4129448519141e-16
  58    4.2595954662593e-18
  59    4.0847531400756e-17
  60    3.0185031998164e-16
  61    1.2412594245097e-16
  62    0.00027104744409946
  63    2.6034280364884e-16
  64    1.5660252657401e-16
  65    0.0031994844284528
  66    -3.5755096639415e-16
  67    -0.0018560015381612
  68    -0.0038016381436105
  69    -3.0571576903921e-16
  70    -4.7195629931826e-16
  71    2.9032854117169e-16
  72    -2.4928027915856e-16
  73    1.1168511155945e-17
  74    2.049422851201e-16
  75    9.063829722989e-17
  76     0.036692426359074